Water Box for Fluid Dynamics Phase 2 in water
 6495
    1SOL     OW    1   3.897   3.858   3.285  0.7869  0.0149 -0.0159
    1SOL    HW1    2   3.958   3.838   3.357  0.1953  0.3820  0.6037
    1SOL    HW2    3   3.895   3.778   3.232 -0.7492 -1.2568  1.8209
    2SOL     OW    4   0.423   0.747   0.485  0.8944 -0.1310 -0.8543
    2SOL    HW1    5   0.440   0.663   0.442  0.2352 -0.8788  0.2765
    2SOL    HW2    6   0.330   0.743   0.510  1.0961  0.5270  0.0658
    3SOL     OW    7   0.889   2.123   0.222  0.3280 -0.0062  0.1521
    3SOL    HW1    8   0.982   2.113   0.239 -0.0250 -0.1665  2.2333
    3SOL    HW2    9   0.864   2.043   0.175  1.4180  0.5712 -1.4971
    4SOL     OW   10   0.441   0.642   0.179  0.3822 -0.1831 -0.0256
    4SOL    HW1   11   0.404   0.702   0.114 -1.0932  0.4700  1.3600
    4SOL    HW2   12   0.366   0.593   0.213  1.2030 -0.9290  0.7949
    5SOL     OW   13   2.901   0.672   1.954 -0.0028 -0.0787 -0.4785
    5SOL    HW1   14   2.858   0.592   1.924  0.3923 -1.1341  1.5284
    5SOL    HW2   15   2.891   0.734   1.882 -1.0910 -1.6520 -1.7545
    6SOL     OW   16   0.921   0.316   0.964 -0.3145 -0.2218  0.0021
    6SOL    HW1   17   0.874   0.394   0.934 -0.5672  0.1443  1.3064
    6SOL    HW2   18   0.912   0.317   1.059  1.7709 -0.4998  0.2503
    7SOL     OW   19   2.111   1.320   0.002  0.7376  0.3202  0.1582
    7SOL    HW1   20   2.126   1.380   0.076  0.4890  0.2509  0.2644
    7SOL    HW2   21   2.078   1.377  -0.068 -0.6325  0.1469  0.6251
    8SOL     OW   22   1.510   3.361   3.746 -0.5030  0.4893 -0.4006
    8SOL    HW1   23   1.480   3.377   3.835 -0.1961  0.3272 -0.2688
    8SOL    HW2   24   1.429   3.344   3.696 -0.8946  2.6662 -0.6079
    9SOL     OW   25   1.415   2.296   3.538  0.1179  0.0104  0.6338
    9SOL    HW1   26   1.482   2.357   3.508  0.9994 -1.3952 -0.3408
    9SOL    HW2   27   1.340   2.312   3.481  0.2223  0.3985  0.6038
   10SOL     OW   28   1.073   0.385   0.558  0.6293  0.1112 -0.1366
   10SOL    HW1   29   1.130   0.435   0.615  1.8862 -1.5775  0.1552
   10SOL    HW2   30   1.126   0.312   0.528 -0.4360  0.1529 -2.3576
   11SOL     OW   31   2.494   2.740   3.700 -0.4407  0.4098 -0.2783
   11SOL    HW1   32   2.546   2.709   3.626 -1.4019 -1.0725 -0.3630
   11SOL    HW2   33   2.405   2.746   3.667 -1.1192 -1.4596  1.0316
   12SOL     OW   34   0.465   3.529   3.982  0.3287 -0.1078  0.4146
   12SOL    HW1   35   0.492   3.475   4.056  0.4713 -0.1904  0.3050
   12SOL    HW2   36   0.542   3.581   3.960  0.4133 -0.3648  0.0819
   13SOL     OW   37   1.462   1.057   2.633  0.0062 -0.3130 -0.0620
   13SOL    HW1   38   1.533   1.046   2.570 -1.2650 -0.8817 -1.4730
   13SOL    HW2   39   1.506   1.065   2.717  1.6919 -2.1823 -0.6759
   14SOL     OW   40   3.809   2.117   1.069 -0.2629 -0.0709 -0.3663
   14SOL    HW1   41   3.815   2.060   1.146  2.1326 -2.0715 -1.9009
   14SOL    HW2   42   3.717   2.113   1.043 -0.6372 -1.2007  1.0184
   15SOL     OW   43   0.551   0.708   2.942  0.6863 -0.0457  0.0649
   15SOL    HW1   44   0.580   0.785   2.894  0.5577 -0.8198 -1.2908
   15SOL    HW2   45   0.601   0.711   3.024  0.7710  1.3938 -0.0062
   16SOL     OW   46   3.544   1.311   1.018 -0.3368  0.1745 -0.3973
   16SOL    HW1   47   3.503   1.228   1.044 -0.7641  1.1123  2.3013
   16SOL    HW2   48   3.507   1.376   1.078 -0.0432  2.3631 -2.4362
   17SOL     OW   49   0.444   3.134   0.389 -0.7122 -0.2207 -0.3185
   17SOL    HW1   50   0.512   3.202   0.390 -0.6328 -0.2992 -0.4661
   17SOL    HW2   51   0.419   3.125   0.481  0.4737 -1.1980 -0.0660
   18SOL     OW   52   3.616   1.796   2.615 -0.6978 -0.6498 -0.4329
   18SOL    HW1   53   3.525   1.823   2.613 -0.3258  0.6134 -1.9781
   18SOL    HW2   54   3.665   1.876   2.597  0.8761 -0.7783  2.5519
   19SOL     OW   55   3.763   2.015   0.734 -0.6958 -0.0079 -0.2902
   19SOL    HW1   56   3.722   2.101   0.722  1.7479  1.0953 -1.2098
   19SOL    HW2   57   3.854   2.034   0.754  0.6561 -2.3817 -3.3924
   20SOL     OW   58   2.862   0.341   0.099  0.6975  0.0104  0.3279
   20SOL    HW1   59   2.833   0.307   0.014  0.9254  0.3025  0.1331
   20SOL    HW2   60   2.784   0.338   0.154  0.4364  0.2480 -0.0264
   21SOL     OW   61   2.697   3.454   0.367 -0.4695 -0.2069 -0.7062
   21SOL    HW1   62   2.742   3.446   0.282  1.9688 -1.0172  0.5570
   21SOL    HW2   63   2.768   3.467   0.430 -2.3744  3.2327  0.9654
   22SOL     OW   64   1.113   3.250   3.837  0.0461 -0.2068 -0.4546
   22SOL    HW1   65   1.147   3.282   3.753 -1.5767 -2.4025 -2.1005
   22SOL    HW2   66   1.177   3.185   3.865 -0.2708 -0.7724 -0.9914
   23SOL     OW   67   0.365   0.375   1.069 -0.6724 -0.4290  0.6785
   23SOL    HW1   68   0.325   0.399   1.153 -1.8168  0.2363 -0.0294
   23SOL    HW2   69   0.420   0.299   1.089 -0.4569  0.0765  2.1361
   24SOL     OW   70   1.645   1.479   0.877 -0.6463 -0.5587 -0.7032
   24SOL    HW1   71   1.604   1.432   0.950 -0.2347 -1.3386 -0.9543
   24SOL    HW2   72   1.651   1.413   0.807 -0.7615  0.0932 -1.3341
   25SOL     OW   73   2.464   0.386   3.342 -0.1023  0.0794 -0.4198
   25SOL    HW1   74   2.456   0.291   3.343  0.3489  0.0183 -1.4721
   25SOL    HW2   75   2.456   0.410   3.250 -0.6960  1.1101 -0.1187
   26SOL     OW   76   0.513   3.369   2.730  0.1358  0.4547 -0.4690
   26SOL    HW1   77   0.519   3.460   2.758 -1.2542  0.2241  0.6500
   26SOL    HW2   78   0.454   3.371   2.655  0.2974  0.5047 -0.5949
   27SOL     OW   79   3.876   1.087   1.988 -0.1296 -0.2943 -0.4766
   27SOL    HW1   80   3.876   1.013   1.927 -0.3318 -0.0709 -0.7518
   27SOL    HW2   81   3.928   1.058   2.062  0.6410 -0.3428 -1.0325
   28SOL     OW   82   0.852   2.256   0.809 -0.0145  0.5081 -0.2323
   28SOL    HW1   83   0.888   2.198   0.742 -0.8011 -1.8501  1.2597
   28SOL    HW2   84   0.916   2.252   0.881 -0.7070  0.4526  0.3936
   29SOL     OW   85   0.143   3.629   2.529  0.2853 -0.0771  1.0448
   29SOL    HW1   86   0.062   3.668   2.562  0.9488  0.4249  2.1004
   29SOL    HW2   87   0.142   3.540   2.564 -1.7227 -1.5155 -2.1682
   30SOL     OW   88   2.246  -0.011   3.897  0.4916  0.0059 -0.6367
   30SOL    HW1   89   2.196   0.068   3.920 -0.0203 -0.7463  0.9804
   30SOL    HW2   90   2.311  -0.018   3.967 -0.3905 -1.7663  0.0558
   31SOL     OW   91   2.441   3.041   1.990 -0.0145 -0.3572  0.1240
   31SOL    HW1   92   2.399   2.963   1.955 -0.0625 -0.6092  0.7361
   31SOL    HW2   93   2.513   3.008   2.045 -0.4741 -0.0091  0.9651
   32SOL     OW   94   1.519   1.045   1.051  0.4886 -0.0937  0.0316
   32SOL    HW1   95   1.587   1.057   0.985  1.5550  0.4710  1.1834
   32SOL    HW2   96   1.437   1.052   1.003  1.2070  1.7353 -1.0388
   33SOL     OW   97   2.557   1.654   0.655  0.2339  0.0534 -0.0211
   33SOL    HW1   98   2.552   1.589   0.725  1.1126 -1.1082 -0.9734
   33SOL    HW2   99   2.475   1.643   0.607  0.5837 -0.7332 -0.4669
   34SOL     OW  100   1.525   1.026   0.659 -0.4310  0.4432 -0.4667
   34SOL    HW1  101   1.444   1.053   0.701 -2.0357  1.3503 -3.7854
   34SOL    HW2  102   1.593   1.078   0.703 -2.3187  3.4469 -0.7876
   35SOL     OW  103   2.071   1.738   3.408  0.2817  0.2939  0.1904
   35SOL    HW1  104   2.076   1.773   3.497  0.3200 -1.6353  1.0080
   35SOL    HW2  105   1.978   1.734   3.389  0.3099  2.8531 -0.8238
   36SOL     OW  106   2.414   0.135   3.673  0.3154  0.3419  0.3127
   36SOL    HW1  107   2.368   0.052   3.680  0.6656  0.0322 -0.8398
   36SOL    HW2  108   2.459   0.131   3.589  3.8441 -0.0979  1.9989
   37SOL     OW  109   0.251   0.808   3.514  0.0591  0.1224 -0.3342
   37SOL    HW1  110   0.330   0.863   3.511 -0.3488  0.7015 -0.7984
   37SOL    HW2  111   0.188   0.861   3.562  0.6957 -1.3766  2.3574
   38SOL     OW  112   0.491   3.479   0.606 -0.2503  0.0518  0.0130
   38SOL    HW1  113   0.492   3.453   0.698  0.3835  0.7066  0.2021
   38SOL    HW2  114   0.567   3.436   0.568 -0.5796 -0.3158 -0.2409
   39SOL     OW  115   3.688   3.363   1.754 -0.2392  0.1902 -0.5760
   39SOL    HW1  116   3.734   3.345   1.836 -1.2481  0.1732  0.0033
   39SOL    HW2  117   3.723   3.447   1.725 -2.5207  2.1372  1.8699
   40SOL     OW  118   1.107   3.782   3.306  0.0246  0.2603 -0.0869
   40SOL    HW1  119   1.161   3.815   3.378 -0.4431 -0.9326  0.8354
   40SOL    HW2  120   1.114   3.850   3.239  2.1969  0.4232  0.2119
   41SOL     OW  121   2.467   1.748   1.738  0.4270 -0.2218  0.0620
   41SOL    HW1  122   2.385   1.699   1.744  0.4924 -0.2481  1.0352
   41SOL    HW2  123   2.511   1.730   1.821  0.2713  1.7986  0.6516
   42SOL     OW  124   2.401   1.588   2.220  0.4059  0.0579  0.3861
   42SOL    HW1  125   2.309   1.567   2.201  0.0518 -0.8384  2.8037
   42SOL    HW2  126   2.451   1.529   2.164 -0.4987 -0.2955 -0.0729
   43SOL     OW  127   2.590   1.878   3.715  0.8107 -0.2666 -0.6444
   43SOL    HW1  128   2.673   1.918   3.742  1.2332 -2.0894  1.0518
   43SOL    HW2  129   2.617   1.802   3.662  0.2844 -1.1607  0.3348
   44SOL     OW  130   2.442   2.034   3.399  0.6144  0.2579 -0.0863
   44SOL    HW1  131   2.372   2.088   3.364 -0.8171 -1.6963 -0.4025
   44SOL    HW2  132   2.495   2.012   3.322  0.7351  0.5505 -0.0877
   45SOL     OW  133   2.449   1.278   0.453  0.6953  0.6902  0.1619
   45SOL    HW1  134   2.537   1.243   0.439  0.1085 -0.5837 -0.4857
   45SOL    HW2  135   2.391   1.203   0.439 -0.4217  1.1610  1.9319
   46SOL     OW  136   0.501   2.372   2.550  0.2602  0.1259 -0.3171
   46SOL    HW1  137   0.559   2.303   2.519  0.0744 -0.5817  0.8419
   46SOL    HW2  138   0.559   2.446   2.571  0.3472  0.8575 -2.7811
   47SOL     OW  139   1.357   0.339   0.203  0.0972  0.2879  0.1291
   47SOL    HW1  140   1.387   0.363   0.115  0.2662  2.5229  0.7348
   47SOL    HW2  141   1.438   0.327   0.253 -0.0075 -0.2495  0.1776
   48SOL     OW  142   1.753   3.959   1.504 -0.1741 -0.4539 -0.4368
   48SOL    HW1  143   1.712   3.902   1.569  0.8139 -0.8410 -0.1463
   48SOL    HW2  144   1.845   3.933   1.503  0.4467  1.5733  0.1550
   49SOL     OW  145   2.989   0.012   0.207  1.1957 -0.1007  0.5605
   49SOL    HW1  146   3.042  -0.058   0.245  1.7136 -0.5019 -0.8643
   49SOL    HW2  147   3.044   0.089   0.211  0.4984  0.3603  2.4540
   50SOL     OW  148   0.080   3.849   2.332  0.2034 -0.5892  0.1101
   50SOL    HW1  149   0.067   3.904   2.255  1.7190 -0.1774  0.1245
   50SOL    HW2  150   0.053   3.761   2.303 -0.5148 -0.1994 -0.4587
   51SOL     OW  151   0.944   0.656   2.113  0.1330  0.0449 -0.2535
   51SOL    HW1  152   0.872   0.619   2.062  1.2487 -2.6125 -0.0843
   51SOL    HW2  153   1.012   0.675   2.049 -0.5722  2.3792 -0.3900
   52SOL     OW  154   3.932   2.501   0.317  0.2776 -0.3919  0.5634
   52SOL    HW1  155   3.910   2.474   0.227 -0.9276  3.3233 -0.4368
   52SOL    HW2  156   4.028   2.505   0.318  0.2938  0.6553 -1.0321
   53SOL     OW  157   3.160   2.400   0.540 -0.2831 -0.4020 -0.3338
   53SOL    HW1  158   3.162   2.313   0.501  0.4885  0.1292 -1.5549
   53SOL    HW2  159   3.148   2.384   0.634  1.1612 -1.8896 -0.3459
   54SOL     OW  160   0.466   1.938   1.157 -0.0495 -0.6410  0.6680
   54SOL    HW1  161   0.386   1.990   1.163  1.5407  1.8729  2.5426
   54SOL    HW2  162   0.437   1.852   1.128 -3.0100  0.9619 -1.7526
   55SOL     OW  163   0.829   2.601   3.109 -0.5860 -0.1330  0.0220
   55SOL    HW1  164   0.752   2.599   3.166 -0.0883  0.0770  0.7042
   55SOL    HW2  165   0.865   2.689   3.119  0.0231 -0.3844  0.0843
   56SOL     OW  166   1.743   2.962   0.845 -0.2955 -0.5711  0.1216
   56SOL    HW1  167   1.660   3.005   0.824  0.5880  1.2600  0.1963
   56SOL    HW2  168   1.732   2.933   0.936 -0.4542  0.7672  0.5600
   57SOL     OW  169   0.544   0.359   0.719 -0.0651 -0.6096 -0.1510
   57SOL    HW1  170   0.636   0.347   0.695  0.3879 -0.0864  1.2397
   57SOL    HW2  171   0.532   0.305   0.797 -0.1599  1.4409  1.3494
   58SOL     OW  172   3.869   3.031   2.808 -0.7024  0.1164 -0.5884
   58SOL    HW1  173   3.811   3.084   2.754 -0.5799  1.1016  0.2387
   58SOL    HW2  174   3.814   2.998   2.879 -0.9459 -1.4608 -1.4521
   59SOL     OW  175   2.290   0.238   1.369 -0.4104 -0.4837  0.8325
   59SOL    HW1  176   2.248   0.266   1.289 -0.8825  2.7389  2.0756
   59SOL    HW2  177   2.219   0.206   1.425 -0.8743  1.9211  1.7220
   60SOL     OW  178   3.048   3.544   1.057  0.1771  0.1685 -0.5454
   60SOL    HW1  179   3.045   3.625   1.109 -0.2963 -1.6952  2.5876
   60SOL    HW2  180   3.138   3.513   1.067 -0.1442 -0.6409 -0.0837
   61SOL     OW  181   3.707   2.460   1.075 -0.1551  0.5118 -0.1847
   61SOL    HW1  182   3.699   2.532   1.137  0.8337  1.1101 -0.7332
   61SOL    HW2  183   3.790   2.417   1.096 -0.7963 -0.5839  0.2308
   62SOL     OW  184   2.847   2.590   0.697 -0.5588  0.3032  0.4155
   62SOL    HW1  185   2.827   2.508   0.652  0.5720 -0.7154  1.6808
   62SOL    HW2  186   2.765   2.616   0.739 -1.6582  1.3073 -2.1705
   63SOL     OW  187   2.721   0.791   2.931 -0.5717 -0.3717  0.3228
   63SOL    HW1  188   2.730   0.886   2.929  0.2741 -0.2047  4.0273
   63SOL    HW2  189   2.801   0.758   2.890 -0.9314  0.4616 -1.1110
   64SOL     OW  190   2.279   0.929   2.838 -0.4205  0.4560  0.3091
   64SOL    HW1  191   2.245   0.866   2.774 -1.2713 -0.0440  1.2128
   64SOL    HW2  192   2.335   0.987   2.787 -1.2634  0.2326 -0.9389
   65SOL     OW  193   3.685   0.897   0.707 -0.6442 -0.2122  0.3160
   65SOL    HW1  194   3.705   0.914   0.615  0.3813 -0.1753  0.5334
   65SOL    HW2  195   3.682   0.984   0.747  2.2092 -0.3068  0.9471
   66SOL     OW  196   1.672   2.743   0.680  0.5105 -0.0928 -0.5601
   66SOL    HW1  197   1.725   2.814   0.718 -0.4495 -0.3218  1.3583
   66SOL    HW2  198   1.638   2.696   0.756 -0.8123 -1.1668 -1.7648
   67SOL     OW  199   0.593   1.542   2.481 -0.5047 -0.3839 -0.5652
   67SOL    HW1  200   0.576   1.601   2.554 -0.2209 -0.8616 -0.1094
   67SOL    HW2  201   0.564   1.591   2.403  0.6399  0.7462 -0.2991
   68SOL     OW  202   2.261   2.114   1.746  0.5013 -0.3533 -0.8102
   68SOL    HW1  203   2.351   2.092   1.771  0.7260  1.7455  0.4751
   68SOL    HW2  204   2.263   2.209   1.733 -1.5364 -0.2781 -0.7534
   69SOL     OW  205   2.499   0.504   3.662  0.0452  0.1091  0.0737
   69SOL    HW1  206   2.504   0.596   3.637  2.5323 -0.3823 -1.7081
   69SOL    HW2  207   2.500   0.456   3.579 -0.5765 -1.5438  0.9577
   70SOL     OW  208   2.843   0.460   3.044 -0.1165  0.6364  0.4776
   70SOL    HW1  209   2.820   0.507   3.125 -2.1915  0.0769  0.2756
   70SOL    HW2  210   2.820   0.369   3.062  0.1035  0.3821 -0.4959
   71SOL     OW  211   3.927   0.188   3.972  0.0865  0.3170 -0.0143
   71SOL    HW1  212   3.940   0.093   3.973 -0.8356  0.1792  1.1044
   71SOL    HW2  213   3.962   0.219   4.055  1.6041  1.1767 -0.9256
   72SOL     OW  214   1.626   3.270   2.761  0.6131  0.2754  0.9249
   72SOL    HW1  215   1.547   3.217   2.746  0.6100  0.0604  1.6447
   72SOL    HW2  216   1.597   3.360   2.747  0.5381  0.1219  0.0065
   73SOL     OW  217   3.837   2.474   2.485  0.1029  0.7464  0.4273
   73SOL    HW1  218   3.783   2.395   2.486 -1.3253  1.6785  0.1181
   73SOL    HW2  219   3.785   2.540   2.532  1.8007  1.1930  1.7724
   74SOL     OW  220   2.940   2.141   2.737  0.4991  0.8103  0.1404
   74SOL    HW1  221   2.987   2.202   2.792  0.8440  0.8471 -0.1917
   74SOL    HW2  222   2.849   2.148   2.765  0.5367  1.4693  0.1081
   75SOL     OW  223   3.603   1.133   3.273 -0.2328  0.1636 -0.0031
   75SOL    HW1  224   3.592   1.062   3.209 -1.5747 -0.3954  0.8184
   75SOL    HW2  225   3.524   1.186   3.263  0.4295  1.1490 -0.0966
   76SOL     OW  226   0.910   0.028   3.926  0.0930  0.7108 -0.0270
   76SOL    HW1  227   0.913   0.011   3.832  1.2929  0.6548  0.0073
   76SOL    HW2  228   0.912   0.124   3.933  2.6528  0.7241 -0.0385
   77SOL     OW  229   0.275   3.257   3.232  0.7401 -0.0550  0.4001
   77SOL    HW1  230   0.310   3.171   3.255 -0.1119 -0.4486  0.2667
   77SOL    HW2  231   0.263   3.253   3.137  0.0975 -0.0279  0.4746
   78SOL     OW  232   0.021   0.132   1.380  0.0536  0.4868  0.2550
   78SOL    HW1  233  -0.069   0.101   1.372 -0.5961  2.2850  0.0034
   78SOL    HW2  234   0.068   0.089   1.310 -1.3922  1.9688 -1.7461
   79SOL     OW  235   2.367   3.973   1.461 -0.3211 -0.1647 -0.5182
   79SOL    HW1  236   2.364   4.059   1.418  0.4580  1.8086  3.0367
   79SOL    HW2  237   2.460   3.951   1.463 -0.4378 -0.6750 -0.5764
   80SOL     OW  238   1.234   3.239   1.879 -0.2788 -0.4021 -0.0469
   80SOL    HW1  239   1.236   3.292   1.799  2.0247 -0.3044  0.0314
   80SOL    HW2  240   1.242   3.302   1.950  1.6636 -0.7343  0.0741
   81SOL     OW  241   3.516   1.680   3.747  0.2012  1.0665 -0.4871
   81SOL    HW1  242   3.530   1.623   3.672  0.0942  1.1944 -0.6040
   81SOL    HW2  243   3.565   1.639   3.818  0.1540  0.8496 -0.5812
   82SOL     OW  244   1.990   1.638   1.609  0.0139  0.1697 -0.1620
   82SOL    HW1  245   2.030   1.552   1.598  0.8910  0.3834  1.1583
   82SOL    HW2  246   1.925   1.643   1.538 -0.0048 -1.5289 -0.3180
   83SOL     OW  247   0.835   0.798   2.922 -0.3642 -0.1005  0.8902
   83SOL    HW1  248   0.899   0.865   2.946  1.8926 -1.6130 -0.4549
   83SOL    HW2  249   0.861   0.721   2.972  0.6468 -1.5100 -1.5956
   84SOL     OW  250   1.931   0.716   0.728  0.2698  0.8050  0.3822
   84SOL    HW1  251   1.998   0.734   0.662  0.3338 -0.6490  0.0227
   84SOL    HW2  252   1.850   0.752   0.690  0.4774  0.7964 -0.0764
   85SOL     OW  253   0.222   3.496   0.984  0.1564 -0.4558  1.0449
   85SOL    HW1  254   0.258   3.582   1.005  0.4993 -0.5825  0.9864
   85SOL    HW2  255   0.140   3.492   1.033 -1.8749  1.4270 -1.9279
   86SOL     OW  256   1.109   0.558   2.403  0.5633  0.3649 -0.1917
   86SOL    HW1  257   1.171   0.629   2.385 -0.6285  1.2947 -0.7085
   86SOL    HW2  258   1.025   0.601   2.417 -0.4743 -0.9917 -1.8184
   87SOL     OW  259   3.681   3.533   0.440 -0.1805  0.2797  0.6920
   87SOL    HW1  260   3.676   3.613   0.387 -0.3381 -0.5709 -0.6164
   87SOL    HW2  261   3.744   3.478   0.395 -1.8008 -1.2776  0.2235
   88SOL     OW  262   2.394   2.711   1.010 -0.4191 -0.6797 -0.4898
   88SOL    HW1  263   2.464   2.736   0.949  1.1929 -1.1613  1.0729
   88SOL    HW2  264   2.375   2.791   1.058  0.5151 -0.9878  0.4387
   89SOL     OW  265   3.768   3.964   1.476  0.4660  0.4233 -0.1960
   89SOL    HW1  266   3.726   3.917   1.549  1.7676 -1.2390 -0.4513
   89SOL    HW2  267   3.852   3.920   1.465  0.2216  0.4458 -2.8521
   90SOL     OW  268   2.672   0.371   1.682  0.0962  0.3510 -0.1514
   90SOL    HW1  269   2.698   0.463   1.678 -2.4499  1.1175 -2.4348
   90SOL    HW2  270   2.578   0.372   1.663  0.1536 -2.7895 -1.1793
   91SOL     OW  271   0.309   0.404   1.401 -0.1095 -0.5910  0.0376
   91SOL    HW1  272   0.321   0.311   1.422 -2.7269 -1.0192 -0.0362
   91SOL    HW2  273   0.252   0.437   1.469  0.1806  0.8088 -0.3610
   92SOL     OW  274   4.025   2.669   0.011 -0.2643  0.8029  0.4515
   92SOL    HW1  275   3.998   2.690   0.100 -1.0948  1.0096  0.1557
   92SOL    HW2  276   3.945   2.641  -0.033  0.3998 -0.7725  0.1752
   93SOL     OW  277   0.340   0.473   2.405  0.1872  0.0358  0.5061
   93SOL    HW1  278   0.258   0.519   2.385 -0.3606 -0.2904  1.8650
   93SOL    HW2  279   0.396   0.540   2.443  0.8073  0.3996 -0.9877
   94SOL     OW  280   2.914   3.692   4.014  0.0293  0.5358 -0.4743
   94SOL    HW1  281   2.859   3.770   4.009 -0.6117  0.0453 -1.2822
   94SOL    HW2  282   2.989   3.712   3.957 -1.8882 -0.7653 -3.7432
   95SOL     OW  283   1.753   2.225   2.646 -0.3023  0.2691  0.1255
   95SOL    HW1  284   1.797   2.165   2.707  1.7627  2.4238  0.9221
   95SOL    HW2  285   1.703   2.284   2.703 -2.5493 -0.7897 -0.6573
   96SOL     OW  286   1.174   0.763   1.971 -0.0600  0.3234  0.6276
   96SOL    HW1  287   1.212   0.758   1.883  1.0148  0.9675  1.0394
   96SOL    HW2  288   1.212   0.689   2.018 -1.6281 -0.7921  0.2056
   97SOL     OW  289   0.676   1.621   2.873  0.7898  0.3318  0.1997
   97SOL    HW1  290   0.607   1.561   2.901 -1.6503  2.5387 -0.7687
   97SOL    HW2  291   0.644   1.708   2.897  3.0991  1.4873 -0.6181
   98SOL     OW  292   3.153   1.297   1.303  0.0452  0.3373 -0.2484
   98SOL    HW1  293   3.129   1.388   1.320  0.2891  0.6651 -1.5383
   98SOL    HW2  294   3.132   1.283   1.211 -1.2544 -1.3378  0.2540
   99SOL     OW  295   0.685   1.150   2.249  0.3083 -0.0100 -0.1879
   99SOL    HW1  296   0.734   1.221   2.289 -0.4979  0.2885  0.2978
   99SOL    HW2  297   0.632   1.114   2.320  0.3786 -0.8061 -0.5303
  100SOL     OW  298   1.370   1.244   2.342 -0.1617 -0.2505 -0.2750
  100SOL    HW1  299   1.360   1.162   2.389  2.1472  0.7933  2.3498
  100SOL    HW2  300   1.462   1.269   2.357 -1.4885  4.4259  2.0662
  101SOL     OW  301   0.621   1.120   0.568 -0.3380 -0.2873  0.1114
  101SOL    HW1  302   0.701   1.073   0.544 -0.7159  0.9525 -4.3744
  101SOL    HW2  303   0.652   1.201   0.608  0.6523 -0.1636 -0.8719
  102SOL     OW  304   2.981   3.812   1.314 -0.3338  0.8901 -0.3152
  102SOL    HW1  305   3.057   3.842   1.264 -1.1498  1.4867 -1.2390
  102SOL    HW2  306   2.936   3.892   1.341 -1.5734  0.5591 -1.2946
  103SOL     OW  307   1.686   0.571   1.774  0.2145 -0.4538  0.2892
  103SOL    HW1  308   1.685   0.589   1.680 -0.9374  0.1230  0.3912
  103SOL    HW2  309   1.662   0.655   1.814 -3.2616 -1.5615  0.8820
  104SOL     OW  310   3.152   3.258   3.131 -0.0198  0.5004  0.2919
  104SOL    HW1  311   3.163   3.310   3.211  1.1751  0.3437  0.2526
  104SOL    HW2  312   3.184   3.316   3.061 -1.4349  0.7890 -0.1418
  105SOL     OW  313   2.883   0.767   0.543  0.0952 -0.4288 -0.1257
  105SOL    HW1  314   2.879   0.676   0.512 -0.5151 -0.4515  0.0140
  105SOL    HW2  315   2.941   0.810   0.480  3.4730 -1.6983  1.8054
  106SOL     OW  316   3.388   2.997   2.418  0.0600 -0.0717  0.2891
  106SOL    HW1  317   3.365   3.059   2.349  0.7914  0.0489  0.1501
  106SOL    HW2  318   3.304   2.961   2.446 -0.2551 -0.1449 -0.6890
  107SOL     OW  319   3.365   2.549   0.455 -0.2734  0.4044 -0.0282
  107SOL    HW1  320   3.451   2.530   0.494  0.5495  0.3244 -1.7642
  107SOL    HW2  321   3.302   2.512   0.516  1.0327 -2.2702 -0.1775
  108SOL     OW  322   1.633   3.475   2.420  0.0866 -0.5320 -0.3423
  108SOL    HW1  323   1.675   3.559   2.400 -0.7376 -0.2038 -0.7348
  108SOL    HW2  324   1.701   3.424   2.465  0.2821  0.7435  0.8920
  109SOL     OW  325   2.437   3.291   3.075  0.3740  0.2822  0.4332
  109SOL    HW1  326   2.360   3.297   3.132  2.4877 -1.7093  3.8636
  109SOL    HW2  327   2.498   3.235   3.123  3.8706  1.4167 -2.2374
  110SOL     OW  328   1.194   1.404   2.192  0.0323 -0.0635 -0.1252
  110SOL    HW1  329   1.240   1.354   2.260  0.7869 -0.0237 -0.5890
  110SOL    HW2  330   1.104   1.409   2.223  0.5055  0.5874  1.2430
  111SOL     OW  331   2.781   3.415   1.691  0.6679  0.0763 -0.6087
  111SOL    HW1  332   2.697   3.442   1.654  0.0290 -0.0571  0.6755
  111SOL    HW2  333   2.782   3.320   1.683  0.0709 -0.0568  0.5527
  112SOL     OW  334   1.741   2.097   3.362  0.4790 -0.2770 -0.1706
  112SOL    HW1  335   1.687   2.064   3.434  0.4282 -0.0216 -0.0922
  112SOL    HW2  336   1.830   2.100   3.398  0.3527  0.4726  0.0913
  113SOL     OW  337   3.181   2.074   3.241  0.5355 -0.0061  0.0457
  113SOL    HW1  338   3.089   2.077   3.266 -0.3461 -2.4075 -2.3640
  113SOL    HW2  339   3.206   2.166   3.228 -1.5059  0.7027  0.7807
  114SOL     OW  340   2.029   0.036   1.909  0.0426 -0.0160 -0.2181
  114SOL    HW1  341   2.000  -0.020   1.836 -0.2333  2.6331 -2.2796
  114SOL    HW2  342   2.124   0.029   1.908 -0.0252 -1.5714  0.5766
  115SOL     OW  343   3.071   0.352   3.816 -0.2782 -0.2266 -0.5407
  115SOL    HW1  344   3.109   0.431   3.854 -0.0495 -1.0114  0.9297
  115SOL    HW2  345   2.976   0.367   3.821 -0.2363  0.4672 -1.4530
  116SOL     OW  346   0.519   2.092   1.597 -0.5560  0.2446  0.6966
  116SOL    HW1  347   0.570   2.068   1.519  0.1284  0.8417  0.9494
  116SOL    HW2  348   0.455   2.154   1.565  1.9216  3.2624  1.1038
  117SOL     OW  349   3.542   1.977   3.390  0.0430 -0.6462 -0.2475
  117SOL    HW1  350   3.466   1.933   3.351 -1.7850 -0.0225  2.3003
  117SOL    HW2  351   3.540   1.950   3.482  2.4718  0.0700  0.0957
  118SOL     OW  352   1.546   0.124   2.974 -0.0666 -0.1508  0.6443
  118SOL    HW1  353   1.478   0.140   2.908  0.5502  1.8499  0.4399
  118SOL    HW2  354   1.519   0.177   3.049  0.9861  0.2386  0.7576
  119SOL     OW  355   2.075   2.222   3.812 -0.4109 -0.1306  0.0109
  119SOL    HW1  356   2.134   2.241   3.739 -0.8861 -0.5289 -0.4810
  119SOL    HW2  357   1.997   2.186   3.771 -1.2091  0.8676  0.6094
  120SOL     OW  358   0.965   1.819   1.058  0.2395 -0.5680 -0.3632
  120SOL    HW1  359   0.951   1.821   1.152 -0.7178  1.5696 -0.5081
  120SOL    HW2  360   1.058   1.841   1.047 -0.0851  1.1175  0.0399
  121SOL     OW  361   1.374   3.677   3.953  0.1260 -0.1354 -0.2127
  121SOL    HW1  362   1.430   3.600   3.942  1.2536  0.7475 -0.9271
  121SOL    HW2  363   1.412   3.724   4.027  0.2893  0.4338 -0.6540
  122SOL     OW  364   0.910   3.202   0.524 -0.6442  0.0334 -0.2705
  122SOL    HW1  365   0.982   3.256   0.491 -2.2127  1.2232 -1.9520
  122SOL    HW2  366   0.951   3.146   0.590  1.0563  3.4493  1.8718
  123SOL     OW  367   0.633   0.990   1.343 -0.2774 -1.0004 -0.3311
  123SOL    HW1  368   0.661   1.052   1.411 -0.7030 -0.7007 -0.4217
  123SOL    HW2  369   0.578   1.042   1.285 -0.4102 -1.4018 -0.5677
  124SOL     OW  370   0.765   3.618   1.135  0.9785  0.5053 -0.3047
  124SOL    HW1  371   0.786   3.586   1.223 -0.4098 -1.3920 -0.5877
  124SOL    HW2  372   0.674   3.645   1.141 -0.2421 -2.7290 -1.8126
  125SOL     OW  373   0.324   0.812   3.941  0.1272  0.5971  0.2890
  125SOL    HW1  374   0.266   0.835   4.013  0.2272  4.2545 -0.5751
  125SOL    HW2  375   0.266   0.800   3.866  0.2566  0.9692  0.1243
  126SOL     OW  376   0.102   2.082   1.470  0.2825  0.2059 -0.1734
  126SOL    HW1  377   0.079   2.054   1.559 -1.0526 -1.3056 -0.9377
  126SOL    HW2  378   0.095   2.002   1.418  3.1500  0.5634 -1.3108
  127SOL     OW  379   2.330   1.899   2.306 -0.1840 -0.1368 -0.2503
  127SOL    HW1  380   2.271   1.939   2.370  0.0343  0.6366 -0.5211
  127SOL    HW2  381   2.339   1.808   2.335  1.9560  0.7764  2.3908
  128SOL     OW  382   0.248   0.150   2.774 -0.5009 -0.0096  0.1404
  128SOL    HW1  383   0.312   0.104   2.828 -1.3322 -0.2173  0.9904
  128SOL    HW2  384   0.224   0.087   2.706 -0.9151 -0.4947  0.7240
  129SOL     OW  385   0.815   1.688   3.257  0.4340  0.8004 -0.2999
  129SOL    HW1  386   0.796   1.778   3.285  0.3603 -0.0815  2.9010
  129SOL    HW2  387   0.907   1.689   3.230  0.5733  1.7247  0.1895
  130SOL     OW  388   3.378   2.739   3.512  0.0148  0.2796  0.0050
  130SOL    HW1  389   3.408   2.736   3.421 -0.1033  2.1580 -0.1399
  130SOL    HW2  390   3.336   2.654   3.526  3.2376 -1.5796 -0.4953
  131SOL     OW  391   2.794   3.636   2.207  0.6592 -0.0911 -0.2445
  131SOL    HW1  392   2.875   3.686   2.190  0.2895  0.5243 -0.2238
  131SOL    HW2  393   2.737   3.657   2.133  0.7704 -1.0842 -0.6310
  132SOL     OW  394   0.091   0.370   2.908 -0.3870  0.5523 -0.0152
  132SOL    HW1  395   0.160   0.306   2.887 -0.7980 -0.0421  0.4116
  132SOL    HW2  396   0.098   0.384   3.002 -1.2270  0.0311  0.1337
  133SOL     OW  397   3.033   1.481   3.647 -0.3125 -0.4406  0.0122
  133SOL    HW1  398   3.088   1.553   3.616  0.2302 -1.1661 -0.7422
  133SOL    HW2  399   3.093   1.407   3.654 -1.2097 -1.2890 -0.9643
  134SOL     OW  400   1.881   3.254   3.678 -0.0520  0.0872  0.4398
  134SOL    HW1  401   1.943   3.216   3.740  2.3962  1.2266 -1.1350
  134SOL    HW2  402   1.840   3.326   3.726 -1.1967 -1.4766  1.9177
  135SOL     OW  403   4.013   1.913   0.341  0.2026 -0.5595 -0.1587
  135SOL    HW1  404   4.049   1.899   0.429  0.6718 -0.1259 -0.2764
  135SOL    HW2  405   3.919   1.913   0.354  0.2388 -1.4973  0.1902
  136SOL     OW  406   2.399   1.417   1.852 -0.1242 -0.3587  0.0244
  136SOL    HW1  407   2.453   1.398   1.775  0.2649 -2.7130  0.7997
  136SOL    HW2  408   2.459   1.453   1.916 -0.5225  2.0153 -0.8158
  137SOL     OW  409   3.330   3.676   1.156 -0.8149  0.2997  0.8715
  137SOL    HW1  410   3.359   3.733   1.227 -1.8712  0.3686  1.2542
  137SOL    HW2  411   3.327   3.732   1.079  5.8513 -0.7811 -0.8080
  138SOL     OW  412   2.565   1.188   1.022  0.2975  0.2598 -0.1276
  138SOL    HW1  413   2.612   1.106   1.039 -0.2201 -0.1582 -0.6740
  138SOL    HW2  414   2.487   1.182   1.077  0.9078  0.9886  0.8383
  139SOL     OW  415   3.592   2.313   2.418  0.2474  0.5694  0.3561
  139SOL    HW1  416   3.503   2.286   2.441  0.7521 -1.8709 -0.3105
  139SOL    HW2  417   3.602   2.288   2.326  1.1397  2.2295 -0.0359
  140SOL     OW  418   2.127   0.750   1.886 -0.3872 -0.4060  0.2824
  140SOL    HW1  419   2.117   0.714   1.798 -2.9144  2.1079 -0.5846
  140SOL    HW2  420   2.222   0.752   1.900  0.0827 -1.0288 -2.2890
  141SOL     OW  421   1.940   1.591   1.899  0.7575 -0.2590 -0.1323
  141SOL    HW1  422   2.009   1.527   1.916  0.2269 -1.2047 -1.4060
  141SOL    HW2  423   1.959   1.625   1.812 -0.4093 -0.5875 -0.5353
  142SOL     OW  424   3.277   0.040   2.598 -0.3108  0.2035 -1.2063
  142SOL    HW1  425   3.240   0.111   2.544 -0.4684  0.5421 -0.6611
  142SOL    HW2  426   3.246  -0.040   2.556 -0.3991  0.4615 -1.6449
  143SOL     OW  427   2.462   0.101   3.392 -0.6474  0.3417  0.0636
  143SOL    HW1  428   2.530   0.043   3.356 -0.8067  0.4969 -0.4988
  143SOL    HW2  429   2.380   0.069   3.354 -0.9452 -0.0829  1.0388
  144SOL     OW  430   1.873   3.777   1.369 -0.1047  0.0769 -0.4968
  144SOL    HW1  431   1.921   3.816   1.296  0.0101 -0.2918 -0.6201
  144SOL    HW2  432   1.939   3.728   1.418 -0.3479 -0.4159 -0.6583
  145SOL     OW  433   3.520   3.081   0.034  0.1374 -0.2474  0.3584
  145SOL    HW1  434   3.455   3.015   0.058 -0.2070 -0.0643 -0.0481
  145SOL    HW2  435   3.474   3.164   0.044  0.2917 -0.1188  0.0328
  146SOL     OW  436   1.670   2.657   3.584 -0.2537  0.5956  0.4740
  146SOL    HW1  437   1.734   2.601   3.540  0.5927  2.1813 -0.4093
  146SOL    HW2  438   1.636   2.603   3.655  0.3296 -1.1133 -0.4842
  147SOL     OW  439   2.609   0.936   1.862  0.5985 -0.0432 -0.5365
  147SOL    HW1  440   2.628   0.972   1.776 -2.3162  1.2626 -0.7409
  147SOL    HW2  441   2.550   1.000   1.902  0.8755 -1.2351  1.9579
  148SOL     OW  442   3.815   1.451   1.368 -0.3860 -0.3919  0.7336
  148SOL    HW1  443   3.848   1.442   1.458  0.6186  0.4212  0.4764
  148SOL    HW2  444   3.894   1.470   1.316 -0.9215 -1.0851 -0.3606
  149SOL     OW  445   1.111   0.650   1.364 -0.4376  0.1304 -0.0797
  149SOL    HW1  446   1.057   0.720   1.402 -0.9699 -1.0355  1.4106
  149SOL    HW2  447   1.106   0.579   1.427  3.6910  0.2561  0.7135
  150SOL     OW  448   3.164   2.144   2.081 -0.0476  0.2235 -0.3442
  150SOL    HW1  449   3.173   2.052   2.054 -0.3733  0.0068  0.2723
  150SOL    HW2  450   3.071   2.155   2.098 -0.1482  0.9208 -1.2784
  151SOL     OW  451   3.026   2.060   0.939 -0.4175 -0.2408 -0.2972
  151SOL    HW1  452   2.953   2.106   0.980 -2.4527 -2.4473 -1.2047
  151SOL    HW2  453   3.046   1.989   0.999  0.1316 -0.3966 -0.6630
  152SOL     OW  454   0.739   2.491   2.491  0.2011  0.3129  0.3914
  152SOL    HW1  455   0.740   2.395   2.497 -0.8306  0.3716  2.5470
  152SOL    HW2  456   0.829   2.514   2.469  1.3955 -1.0821  3.1928
  153SOL     OW  457   3.109   0.901   3.099  0.4821 -0.2698 -0.3958
  153SOL    HW1  458   3.170   0.912   3.026  0.5147 -0.0282 -0.3344
  153SOL    HW2  459   3.047   0.974   3.090 -0.1628 -0.8554 -0.8037
  154SOL     OW  460   1.032   1.673   3.117 -0.4604  0.2448 -0.4449
  154SOL    HW1  461   1.016   1.754   3.068  3.2083  2.5446  1.6863
  154SOL    HW2  462   1.078   1.616   3.056  2.3597  2.3135 -0.4246
  155SOL     OW  463   1.128   1.268   1.957 -0.2958  0.6092 -0.1614
  155SOL    HW1  464   1.169   1.297   2.038 -0.7067 -1.1657  0.7498
  155SOL    HW2  465   1.035   1.288   1.969 -0.8657 -2.1847  1.1681
  156SOL     OW  466   3.074   3.426   1.958 -0.3498  0.1506 -0.3027
  156SOL    HW1  467   3.067   3.499   1.896 -0.0816  1.5436  1.2256
  156SOL    HW2  468   3.030   3.457   2.036 -0.5487 -1.5058  0.2743
  157SOL     OW  469   2.125   1.547   0.290 -0.0512 -0.1034 -0.3042
  157SOL    HW1  470   2.178   1.626   0.301  0.7400 -0.6352 -0.1904
  157SOL    HW2  471   2.167   1.482   0.346 -0.0095 -0.9317 -1.2628
  158SOL     OW  472   2.447   2.418   2.376 -0.3721 -0.4922  0.7674
  158SOL    HW1  473   2.480   2.492   2.427  2.5711 -1.8293  1.0012
  158SOL    HW2  474   2.374   2.384   2.428 -0.5068  1.0404  1.6375
  159SOL     OW  475   3.346   0.260   2.207  0.0104  0.7098 -0.4745
  159SOL    HW1  476   3.407   0.321   2.165  1.5657 -0.0844  0.5179
  159SOL    HW2  477   3.308   0.211   2.135  1.0179  0.8334 -1.1144
  160SOL     OW  478   1.223   1.280   0.479 -0.5870  0.3685 -0.3058
  160SOL    HW1  479   1.135   1.271   0.516  0.0108 -1.7062  0.7683
  160SOL    HW2  480   1.257   1.190   0.476  0.3298  0.6887 -3.7612
  161SOL     OW  481   0.225   3.894   1.985 -0.4686  0.7095  0.3168
  161SOL    HW1  482   0.256   3.804   1.983  1.4456  1.3310 -1.1529
  161SOL    HW2  483   0.304   3.946   2.003 -0.7565  2.3234 -2.4913
  162SOL     OW  484   1.233   3.506   1.997 -0.4138 -0.4672 -0.7745
  162SOL    HW1  485   1.140   3.522   2.012 -0.0548 -0.6246  2.2535
  162SOL    HW2  486   1.277   3.557   2.065  1.5648 -2.3257 -0.5781
  163SOL     OW  487   3.793   0.939   3.387  0.3586 -0.1527 -0.5092
  163SOL    HW1  488   3.733   1.009   3.361  0.9598  0.7825  0.5208
  163SOL    HW2  489   3.800   0.883   3.310 -0.5600  0.6180 -1.1750
  164SOL     OW  490   0.191   3.239   0.228  0.3079  0.3052  0.7916
  164SOL    HW1  491   0.279   3.203   0.215  0.2014  0.6094 -1.0389
  164SOL    HW2  492   0.205   3.322   0.273  1.0201  0.6284 -0.0077
  165SOL     OW  493   3.713   0.688   3.988 -0.1789 -0.4187  0.3895
  165SOL    HW1  494   3.711   0.631   3.911  1.0396  0.9112 -0.7095
  165SOL    HW2  495   3.792   0.663   4.035  0.1567  0.0802  0.1058
  166SOL     OW  496   1.400   1.319   0.700  0.1953 -0.4817 -0.0849
  166SOL    HW1  497   1.489   1.331   0.668  0.8902 -2.3212  0.9899
  166SOL    HW2  498   1.347   1.305   0.622  0.5861  1.7249 -0.8264
  167SOL     OW  499   3.853   3.254   2.023  0.0135  0.5500 -0.7243
  167SOL    HW1  500   3.792   3.192   2.064  1.5365  0.5891  1.8099
  167SOL    HW2  501   3.817   3.340   2.043 -1.0492  0.5812 -2.5447
  168SOL     OW  502   1.862   2.197   0.875  0.1029  0.0116 -0.0692
  168SOL    HW1  503   1.934   2.189   0.937  2.0709 -0.2884 -2.2668
  168SOL    HW2  504   1.885   2.138   0.804 -2.2552  0.0620 -0.9545
  169SOL     OW  505   2.978   0.354   0.492  0.7287  0.1724  0.5601
  169SOL    HW1  506   2.939   0.393   0.570  0.8995  0.9275  0.2793
  169SOL    HW2  507   2.999   0.264   0.517 -1.5090 -0.3747  0.6003
  170SOL     OW  508   1.823   1.069   2.291 -0.0109  0.0442 -0.6869
  170SOL    HW1  509   1.843   1.135   2.224 -0.0225  0.3897 -0.3561
  170SOL    HW2  510   1.889   1.001   2.278 -0.5569 -0.3223 -1.6235
  171SOL     OW  511   3.991   0.876   0.208  0.4057  0.0820 -0.3072
  171SOL    HW1  512   4.014   0.916   0.292 -0.7336 -0.9457  0.5319
  171SOL    HW2  513   3.971   0.951   0.151  2.0629  0.8303  0.0449
  172SOL     OW  514   0.299   1.367   1.843  0.2368 -0.4764  0.1379
  172SOL    HW1  515   0.393   1.348   1.834 -0.0008 -1.4507 -0.3835
  172SOL    HW2  516   0.256   1.282   1.835 -0.8451  0.1874 -1.8686
  173SOL     OW  517   2.604   1.442   2.038  0.0894 -0.1900 -0.6235
  173SOL    HW1  518   2.628   1.534   2.021  1.1552 -0.4625 -0.6734
  173SOL    HW2  519   2.688   1.398   2.051 -0.4901 -0.6669  2.0555
  174SOL     OW  520   3.558   0.794   0.250  0.0610  0.4615  0.1754
  174SOL    HW1  521   3.547   0.797   0.155  0.2253  0.8777  0.1681
  174SOL    HW2  522   3.525   0.879   0.280 -0.6981  0.0403  0.5610
  175SOL     OW  523   3.367   1.372   0.181  0.0259 -0.1515  0.0062
  175SOL    HW1  524   3.456   1.338   0.187  1.4958  3.0582 -1.2207
  175SOL    HW2  525   3.361   1.436   0.251 -1.1864 -0.0782 -0.1484
  176SOL     OW  526   0.584   2.912   0.833  0.2877 -0.1357 -0.0998
  176SOL    HW1  527   0.603   2.837   0.776 -0.4843  0.4180 -1.1110
  176SOL    HW2  528   0.600   2.988   0.778  2.0260  0.5177  1.2030
  177SOL     OW  529   3.107   1.182   3.065  0.3752 -0.9073 -0.8457
  177SOL    HW1  530   3.159   1.220   2.994  0.2905  0.7664 -0.0489
  177SOL    HW2  531   3.054   1.255   3.098 -0.5374 -1.9604  0.0884
  178SOL     OW  532   1.796   0.605   0.138 -0.2332 -0.3061  0.6469
  178SOL    HW1  533   1.805   0.510   0.126  2.3321 -0.3516  2.0955
  178SOL    HW2  534   1.825   0.642   0.054  2.3977 -0.8209  1.2434
  179SOL     OW  535   1.231   2.206   1.388 -0.2623  1.0226  0.3291
  179SOL    HW1  536   1.287   2.251   1.325 -0.4630 -0.6330 -1.0909
  179SOL    HW2  537   1.147   2.252   1.381 -0.3884  0.6337 -0.9004
  180SOL     OW  538   1.879   0.253   2.029 -0.5848 -0.3726 -0.2867
  180SOL    HW1  539   1.947   0.310   1.993 -0.6112 -0.9263 -1.2511
  180SOL    HW2  540   1.899   0.167   1.993 -2.1217 -0.4350 -1.0605
  181SOL     OW  541   2.225   2.673   3.243  0.2863  0.7475  0.0899
  181SOL    HW1  542   2.248   2.618   3.318  0.2848  1.0173  0.2858
  181SOL    HW2  543   2.272   2.755   3.258 -1.0662  1.4450  0.6728
  182SOL     OW  544   2.670   3.048   0.391  0.2289 -0.4240 -0.2172
  182SOL    HW1  545   2.762   3.055   0.366  0.0509 -1.0540 -1.0535
  182SOL    HW2  546   2.624   3.106   0.330  0.0472 -0.2119  0.1162
  183SOL     OW  547   1.634   1.084   0.392 -0.0823 -0.4671  0.2297
  183SOL    HW1  548   1.676   1.004   0.360 -0.4059 -0.2306 -0.7925
  183SOL    HW2  549   1.601   1.060   0.479 -1.9643 -2.0849 -0.8424
  184SOL     OW  550   1.320   0.570   3.570  0.4299 -0.2389  0.5639
  184SOL    HW1  551   1.316   0.524   3.654 -0.3435 -1.2435  0.0011
  184SOL    HW2  552   1.406   0.612   3.569  1.4230 -2.1843  0.8449
  185SOL     OW  553   1.937   0.341   1.706 -0.2638 -0.1922 -0.3494
  185SOL    HW1  554   1.927   0.338   1.801  2.6135 -1.0611  0.0220
  185SOL    HW2  555   1.865   0.287   1.673 -0.7262 -0.7067  1.3987
  186SOL     OW  556   1.201   3.269   0.665  0.1616 -0.4523 -0.5245
  186SOL    HW1  557   1.234   3.337   0.723  1.4370 -0.3270 -1.3613
  186SOL    HW2  558   1.179   3.196   0.723  2.5258 -0.7824  0.0390
  187SOL     OW  559   3.496   2.182   1.498 -0.3789  0.9273  0.4484
  187SOL    HW1  560   3.474   2.246   1.430  0.7088 -0.3511 -1.1837
  187SOL    HW2  561   3.591   2.172   1.492 -0.4936 -0.6360  0.8500
  188SOL     OW  562   1.547   3.331   1.822 -0.7757 -0.1867 -0.5746
  188SOL    HW1  563   1.601   3.284   1.759  0.6970  1.5295 -0.6649
  188SOL    HW2  564   1.465   3.348   1.776  0.6060  1.8906 -2.5147
  189SOL     OW  565   2.849   3.855   0.817 -0.0925 -0.6912  0.3580
  189SOL    HW1  566   2.929   3.876   0.864 -0.7630  2.3405  0.3706
  189SOL    HW2  567   2.878   3.809   0.739  1.6386  0.0279  0.5429
  190SOL     OW  568   3.212   2.022   0.241  0.3005  0.5130  0.1135
  190SOL    HW1  569   3.214   1.927   0.237  1.2841  0.5598 -1.1777
  190SOL    HW2  570   3.119   2.044   0.231  0.0005 -0.3080  0.9499
  191SOL     OW  571   1.290   1.895   2.375 -0.6202 -0.2223 -0.7299
  191SOL    HW1  572   1.251   1.826   2.322 -1.0320 -0.0696 -0.6290
  191SOL    HW2  573   1.219   1.925   2.432 -0.7563  1.0199 -1.5118
  192SOL     OW  574   2.918   3.099   3.131  0.1614  0.1366 -0.6155
  192SOL    HW1  575   2.905   3.085   3.225 -0.3352 -0.5620 -0.7820
  192SOL    HW2  576   2.996   3.155   3.126 -0.6840  1.4326  0.2548
  193SOL     OW  577   3.879   1.192   3.933 -0.0332 -0.0857  0.1086
  193SOL    HW1  578   3.847   1.223   3.848 -0.3705  1.6655  0.8354
  193SOL    HW2  579   3.815   1.126   3.960 -0.8503  0.5459 -0.2489
  194SOL     OW  580   0.682   2.233   1.762 -0.1120  0.1308 -0.1599
  194SOL    HW1  581   0.614   2.189   1.711 -0.2468  0.4134 -0.2242
  194SOL    HW2  582   0.719   2.164   1.817  1.2722 -0.5829 -1.9033
  195SOL     OW  583   3.035   0.421   1.126 -0.2370 -0.2863  0.1806
  195SOL    HW1  584   2.957   0.365   1.131 -0.1130 -0.4366  0.4894
  195SOL    HW2  585   3.102   0.372   1.174 -0.1640  0.1891  0.5728
  196SOL     OW  586   3.936   0.729   1.053 -0.0539 -0.6321 -0.4510
  196SOL    HW1  587   3.953   0.743   0.960 -0.9928 -0.5836 -0.6227
  196SOL    HW2  588   3.948   0.635   1.066  1.8824 -0.3899 -0.2224
  197SOL     OW  589   4.011   3.931   3.969 -0.5134 -0.0396  0.2064
  197SOL    HW1  590   4.052   3.914   3.885 -0.2290  0.7360  0.1758
  197SOL    HW2  591   3.934   3.874   3.971 -0.9574  0.4941 -0.9102
  198SOL     OW  592   1.957   0.655   2.080 -0.4378 -0.0188 -0.1416
  198SOL    HW1  593   2.020   0.705   2.027  0.1105  0.9430  1.3515
  198SOL    HW2  594   1.872   0.691   2.055 -0.1347  0.9039  0.0862
  199SOL     OW  595   2.687   3.229   1.471  0.6119 -0.8321 -0.6276
  199SOL    HW1  596   2.748   3.287   1.425  0.5270 -0.8988 -0.8302
  199SOL    HW2  597   2.600   3.259   1.443  0.5588 -0.8643 -0.4971
  200SOL     OW  598   2.484   2.921   2.366  0.3156  0.5180 -0.4983
  200SOL    HW1  599   2.434   3.003   2.369 -0.2263  0.1593  1.1553
  200SOL    HW2  600   2.418   2.853   2.352  0.8076  0.3600 -2.2848
  201SOL     OW  601   2.226   0.654   3.195 -0.2094  0.5301 -0.8878
  201SOL    HW1  602   2.278   0.626   3.270  0.0868 -0.5532 -1.4698
  201SOL    HW2  603   2.286   0.706   3.142 -0.7711  2.3923  0.2154
  202SOL     OW  604   2.983   0.707   3.644 -0.1781 -0.6755  0.7998
  202SOL    HW1  605   2.979   0.776   3.711  0.9255  0.1249  0.0796
  202SOL    HW2  606   2.911   0.648   3.666 -1.6683  1.1306  0.9831
  203SOL     OW  607   2.956   2.374   0.294  0.6755  0.3278  0.1457
  203SOL    HW1  608   2.861   2.376   0.290  0.7185  2.0691 -1.1514
  203SOL    HW2  609   2.977   2.293   0.341 -1.4421  0.5836  1.6510
  204SOL     OW  610   2.634   2.016   2.079  0.1975  0.3572  0.1824
  204SOL    HW1  611   2.538   2.011   2.082  0.1549  0.7809 -0.2904
  204SOL    HW2  612   2.663   1.958   2.150 -0.3152 -2.7159 -1.9278
  205SOL     OW  613   0.445   1.474   0.811 -0.3435 -0.1813 -0.6372
  205SOL    HW1  614   0.420   1.390   0.847 -0.8460  0.3069  0.1787
  205SOL    HW2  615   0.375   1.495   0.749  0.5563 -1.0527 -2.0161
  206SOL     OW  616   3.690   3.733   2.848  0.2801  0.0365  0.0388
  206SOL    HW1  617   3.651   3.654   2.810 -0.5809  0.6622 -0.4366
  206SOL    HW2  618   3.614   3.785   2.877  0.7746  1.1104 -0.5369
  207SOL     OW  619   1.235   0.932   3.559  0.8483  0.3055 -0.0852
  207SOL    HW1  620   1.240   0.878   3.638  0.2974 -0.5014 -0.5875
  207SOL    HW2  621   1.326   0.941   3.531  0.9836 -0.0081  0.2437
  208SOL     OW  622   2.721   3.528   3.079 -0.8084  0.6401  0.2051
  208SOL    HW1  623   2.629   3.548   3.092 -0.7220  1.6246 -0.5711
  208SOL    HW2  624   2.729   3.512   2.985 -0.0795  1.2163  0.1595
  209SOL     OW  625   1.502   2.125   3.915  0.8136  0.3902 -0.6333
  209SOL    HW1  626   1.481   2.209   3.873  1.6695  0.9005 -0.0696
  209SOL    HW2  627   1.499   2.143   4.009 -0.9797 -0.7252 -0.4274
  210SOL     OW  628   2.519   3.491   0.052 -0.2925  0.2834  0.2916
  210SOL    HW1  629   2.524   3.407   0.099 -0.3860  0.0702 -0.0716
  210SOL    HW2  630   2.603   3.497   0.006 -0.0039  0.7212  0.8599
  211SOL     OW  631   1.729   0.309   0.688  0.5194 -0.2705  0.1518
  211SOL    HW1  632   1.769   0.361   0.758 -0.7169 -1.4779  1.8338
  211SOL    HW2  633   1.641   0.346   0.679  0.0673 -1.2457  0.4857
  212SOL     OW  634   2.603   0.562   0.779 -0.1473 -0.0975 -0.5354
  212SOL    HW1  635   2.530   0.568   0.841 -0.2548 -0.7936 -0.5837
  212SOL    HW2  636   2.561   0.539   0.695  0.0754  0.0134 -0.6759
  213SOL     OW  637   2.612   0.549   2.520  0.0187 -0.4031  0.1086
  213SOL    HW1  638   2.585   0.633   2.555  1.3690  0.4373 -0.7621
  213SOL    HW2  639   2.620   0.492   2.597  0.5533  0.6896  0.8790
  214SOL     OW  640   3.959   0.390   3.476 -0.0313 -0.2462  0.0710
  214SOL    HW1  641   4.021   0.331   3.518  0.5338 -0.4945 -1.0886
  214SOL    HW2  642   3.935   0.346   3.394  0.5825  1.2142 -0.9337
  215SOL     OW  643   3.597   0.174   3.023  0.0959  0.6796  0.3377
  215SOL    HW1  644   3.521   0.190   3.079 -0.1914 -1.3189  0.5921
  215SOL    HW2  645   3.567   0.108   2.960  2.1470 -1.7621  1.7534
  216SOL     OW  646   2.360   0.858   1.096 -0.2605  0.2437  0.1558
  216SOL    HW1  647   2.443   0.854   1.048 -0.1828  0.2288  0.2902
  216SOL    HW2  648   2.382   0.903   1.177 -0.1367 -0.8018  0.7097
  217SOL     OW  649   3.245   3.610   2.113 -0.2054 -0.1620  0.0612
  217SOL    HW1  650   3.257   3.647   2.026 -1.4194  0.6506  0.2099
  217SOL    HW2  651   3.243   3.515   2.100 -0.0595 -0.0567 -0.7425
  218SOL     OW  652   0.864   1.350   1.945 -0.2807 -0.8709 -0.3562
  218SOL    HW1  653   0.816   1.351   2.028 -1.4876 -0.5537 -1.0287
  218SOL    HW2  654   0.850   1.437   1.908  0.1807 -1.0312 -0.9266
  219SOL     OW  655   1.572   0.552   0.566 -0.0830 -0.4518  0.0021
  219SOL    HW1  656   1.526   0.584   0.644 -0.6861 -0.2392 -0.4402
  219SOL    HW2  657   1.640   0.617   0.550 -0.1231 -0.3615  0.1928
  220SOL     OW  658   3.881   3.590   3.434 -0.0685 -0.2306  0.3632
  220SOL    HW1  659   3.900   3.500   3.462 -0.1406 -0.6580 -0.9002
  220SOL    HW2  660   3.967   3.630   3.423 -0.0411  0.0208  1.3933
  221SOL     OW  661   2.760   3.603   2.796 -0.1963 -0.4142 -0.2595
  221SOL    HW1  662   2.846   3.646   2.795 -0.3756 -0.0678 -0.8359
  221SOL    HW2  663   2.705   3.657   2.740 -0.9724 -0.2855  0.6008
  222SOL     OW  664   3.060   0.907   1.529 -0.2211  0.8034  0.0030
  222SOL    HW1  665   3.093   0.905   1.439  0.9451  0.0870  0.4238
  222SOL    HW2  666   3.134   0.939   1.581 -1.2450  2.3537  0.5841
  223SOL     OW  667   0.491   0.048   3.434 -0.2965  0.1507  0.1342
  223SOL    HW1  668   0.419   0.092   3.388  0.4641 -1.1544 -2.5419
  223SOL    HW2  669   0.468  -0.045   3.431  1.5165 -0.3170 -0.9775
  224SOL     OW  670   0.287   2.303   0.113 -0.4579 -0.2146  0.6617
  224SOL    HW1  671   0.233   2.274   0.186 -0.8217 -0.0951  0.4416
  224SOL    HW2  672   0.254   2.255   0.038  0.0807 -0.5223  0.6211
  225SOL     OW  673   0.531   2.809   0.476 -0.0623 -0.0294 -0.0472
  225SOL    HW1  674   0.538   2.902   0.452 -0.8249  0.3749  1.1994
  225SOL    HW2  675   0.453   2.778   0.430 -0.1696  0.1281  0.0248
  226SOL     OW  676   3.075   1.755   1.479 -0.8045 -0.3889 -0.0888
  226SOL    HW1  677   3.102   1.830   1.531 -1.2328  0.4470 -1.0272
  226SOL    HW2  678   3.068   1.683   1.541 -0.2178  0.3030  0.7999
  227SOL     OW  679   0.746   0.734   2.672 -0.6376  0.0565 -0.2200
  227SOL    HW1  680   0.739   0.665   2.738  0.6094 -0.7062 -0.8300
  227SOL    HW2  681   0.790   0.806   2.717 -1.9170  0.4648  0.4137
  228SOL     OW  682   1.013   1.602   0.183 -0.4919 -0.2110  0.3305
  228SOL    HW1  683   1.021   1.662   0.258  0.2797 -2.3236  2.0616
  228SOL    HW2  684   0.955   1.533   0.215 -1.3970 -0.4320 -1.6246
  229SOL     OW  685   0.461   3.972   2.841 -0.2913 -0.3911 -0.0948
  229SOL    HW1  686   0.452   3.905   2.774  0.0465 -0.2570 -0.2737
  229SOL    HW2  687   0.489   3.924   2.919  0.1461 -0.4375 -0.2752
  230SOL     OW  688   2.725   1.799   2.241  0.1025 -0.0593 -0.3303
  230SOL    HW1  689   2.708   1.736   2.311  0.1925 -0.4405 -0.6536
  230SOL    HW2  690   2.811   1.834   2.261 -0.2359  0.4781  0.2403
  231SOL     OW  691   3.917   1.988   1.671  0.5569  0.3874 -0.0301
  231SOL    HW1  692   3.939   1.988   1.764 -0.5328 -0.7995  0.2615
  231SOL    HW2  693   3.864   1.909   1.659  0.0702  0.9000 -1.5182
  232SOL     OW  694   0.722   2.803   3.663 -0.1201  0.1110 -0.0329
  232SOL    HW1  695   0.720   2.754   3.746 -0.3174  1.6665  0.9163
  232SOL    HW2  696   0.667   2.879   3.680  0.3095  0.7453 -1.4296
  233SOL     OW  697   0.978   3.821   3.649 -0.1410 -0.2848 -0.0028
  233SOL    HW1  698   0.925   3.878   3.593 -1.0822 -0.3541  0.7886
  233SOL    HW2  699   0.931   3.737   3.649  0.5837 -0.7011 -0.1891
  234SOL     OW  700   2.998   0.139   0.838  0.3155 -0.1802  0.3411
  234SOL    HW1  701   3.027   0.129   0.748  0.0459 -0.1957  0.2527
  234SOL    HW2  702   2.921   0.082   0.845 -0.5393  0.9133  0.1576
  235SOL     OW  703   2.007   1.823   2.175  0.7145 -0.7188 -0.3587
  235SOL    HW1  704   2.027   1.776   2.256  1.7318 -0.7475 -0.6202
  235SOL    HW2  705   1.945   1.765   2.129  1.1518 -1.3180 -0.2050
  236SOL     OW  706   1.779   0.872   1.970 -0.3262 -0.1916  0.1183
  236SOL    HW1  707   1.749   0.957   2.002  0.1550 -0.3767  1.1116
  236SOL    HW2  708   1.750   0.868   1.879 -0.3228  1.0480  0.0498
  237SOL     OW  709   3.014   3.552   1.358 -0.4053 -0.6201 -0.3976
  237SOL    HW1  710   3.005   3.647   1.357  0.6243 -0.4976 -2.2042
  237SOL    HW2  711   3.097   3.535   1.314 -1.2906 -2.4061 -1.4983
  238SOL     OW  712   0.201   1.121   2.566 -0.1020 -0.4557 -0.3555
  238SOL    HW1  713   0.131   1.057   2.579 -0.1117 -0.6412 -1.2422
  238SOL    HW2  714   0.193   1.180   2.641 -0.5275 -1.0915  0.1163
  239SOL     OW  715   1.218   1.899   0.949 -0.0579 -0.5318 -0.0547
  239SOL    HW1  716   1.244   1.985   0.979 -2.5119 -0.5281  2.4843
  239SOL    HW2  717   1.299   1.856   0.923  1.4379  1.8715  0.4163
  240SOL     OW  718   0.996   0.017   2.768  0.9221  0.1558  0.2761
  240SOL    HW1  719   0.910   0.053   2.790  0.9511 -0.7112  1.9675
  240SOL    HW2  720   0.977  -0.067   2.727  0.9264  0.9619 -1.4439
  241SOL     OW  721   1.691   0.034   1.870 -0.6763  0.1356  0.4559
  241SOL    HW1  722   1.775   0.001   1.838 -0.0856  1.0721  1.0091
  241SOL    HW2  723   1.672   0.109   1.814 -0.4464  0.7772  1.2292
  242SOL     OW  724   3.421   3.479   2.295  0.0091  0.2305  0.2430
  242SOL    HW1  725   3.467   3.521   2.368  0.1067  0.1626  0.2218
  242SOL    HW2  726   3.371   3.550   2.255  2.7139  1.1749 -1.8197
  243SOL     OW  727   1.023   3.327   3.522  0.3379  0.0853  0.2987
  243SOL    HW1  728   0.947   3.308   3.578  1.2984 -0.9815  1.3094
  243SOL    HW2  729   0.986   3.339   3.435 -1.4144  3.3013  1.3022
  244SOL     OW  730   0.044   2.499   3.493  0.5471  0.0041  0.0164
  244SOL    HW1  731   0.109   2.570   3.492 -2.0311  2.5935 -1.7817
  244SOL    HW2  732  -0.023   2.531   3.553 -0.0548 -1.6456  0.2590
  245SOL     OW  733   1.866   1.256   1.651 -0.1146  0.3302  0.0785
  245SOL    HW1  734   1.877   1.226   1.561 -2.0183  0.0270 -0.0906
  245SOL    HW2  735   1.940   1.219   1.698 -0.4798 -1.6929 -0.8381
  246SOL     OW  736   0.053   2.894   1.974  0.1772 -0.8926  0.2660
  246SOL    HW1  737  -0.011   2.841   2.022  0.7638  0.3721  2.6301
  246SOL    HW2  738   0.008   2.977   1.959  0.6032 -0.6725  0.2074
  247SOL     OW  739   2.876   1.906   2.611  0.2837 -0.0151 -0.0714
  247SOL    HW1  740   2.842   1.854   2.684 -0.1070 -0.7190 -0.7486
  247SOL    HW2  741   2.896   1.991   2.650 -0.5290 -0.1774  0.7282
  248SOL     OW  742   2.562   3.138   3.254  0.3498 -0.2385  0.0188
  248SOL    HW1  743   2.658   3.148   3.254  0.1753  2.0594 -1.2366
  248SOL    HW2  744   2.537   3.156   3.344  1.1560 -2.1341  0.6747
  249SOL     OW  745   2.252   1.840   3.170 -0.1045 -0.2018  0.2769
  249SOL    HW1  746   2.182   1.894   3.206 -1.7852 -1.4321 -0.9293
  249SOL    HW2  747   2.230   1.751   3.197  1.8939 -0.4685  1.1680
  250SOL     OW  748   0.848   0.462   0.166  1.0149  0.1836  0.6650
  250SOL    HW1  749   0.812   0.382   0.205 -1.0637  1.3348  1.2561
  250SOL    HW2  750   0.928   0.480   0.216  1.7849 -1.7273  0.2216
  251SOL     OW  751   0.094   3.986   0.207 -0.1481 -0.1166  0.3974
  251SOL    HW1  752   0.011   4.010   0.248 -0.2051 -0.3264  0.4035
  251SOL    HW2  753   0.070   3.923   0.139 -0.0762  0.3668 -0.0870
  252SOL     OW  754   3.651   0.581   1.037  0.4884 -0.4799  0.6238
  252SOL    HW1  755   3.701   0.622   1.108  0.5538 -1.6094  1.2530
  252SOL    HW2  756   3.637   0.491   1.066 -0.1641 -0.7495 -0.4573
  253SOL     OW  757   2.861   2.814   2.798 -0.1507  0.0888 -0.2976
  253SOL    HW1  758   2.804   2.748   2.757 -2.2349  1.1941  0.7017
  253SOL    HW2  759   2.943   2.807   2.749 -0.2481 -3.2343 -0.2447
  254SOL     OW  760   1.255   0.991   0.489 -0.2255 -0.3866  0.4330
  254SOL    HW1  761   1.317   0.975   0.418 -0.3313 -1.7640  0.6298
  254SOL    HW2  762   1.258   0.911   0.542 -0.9778  0.1767  1.3532
  255SOL     OW  763   2.056   1.881   3.642 -0.0102 -0.2847 -0.2155
  255SOL    HW1  764   2.017   1.834   3.716 -0.3996 -1.0454 -0.8863
  255SOL    HW2  765   2.149   1.886   3.665  0.0381 -1.3652 -0.0985
  256SOL     OW  766   3.087   0.483   2.906  0.1149  0.2446 -0.5988
  256SOL    HW1  767   3.008   0.477   2.959 -0.0580  2.9846 -0.4138
  256SOL    HW2  768   3.151   0.526   2.962  1.3771 -0.8098 -1.1706
  257SOL     OW  769   0.756   3.460   3.420  0.1708  0.4376  0.3106
  257SOL    HW1  770   0.778   3.547   3.390  1.1224  0.0094 -0.2755
  257SOL    HW2  771   0.715   3.417   3.345  2.4600 -0.5986 -0.4241
  258SOL     OW  772   1.593   3.862   3.635 -0.1080  0.2567  0.3280
  258SOL    HW1  773   1.520   3.806   3.660 -1.2173  0.7366 -1.5613
  258SOL    HW2  774   1.554   3.928   3.578  1.0947  3.0941  2.5327
  259SOL     OW  775   3.763   3.500   2.048 -0.0453  0.1445  0.1134
  259SOL    HW1  776   3.727   3.565   2.109 -0.8307 -0.3162  0.1534
  259SOL    HW2  777   3.801   3.553   1.977  0.1932  0.6659  0.6178
  260SOL     OW  778   3.588   3.520   2.496 -0.0280 -0.2032  0.1769
  260SOL    HW1  779   3.614   3.612   2.491 -0.1231 -0.1121  1.2436
  260SOL    HW2  780   3.610   3.492   2.585 -2.4632 -0.4253  0.7968
  261SOL     OW  781   2.196   1.436   0.769 -0.3205  0.1385  0.6086
  261SOL    HW1  782   2.258   1.375   0.808 -0.1498  0.2233  0.4750
  261SOL    HW2  783   2.211   1.519   0.816 -1.8013 -0.3562  2.0473
  262SOL     OW  784   2.577   1.467   3.744 -0.8557 -0.1741 -0.7904
  262SOL    HW1  785   2.556   1.492   3.834  2.1066  0.6273 -0.2034
  262SOL    HW2  786   2.596   1.373   3.748 -0.1519 -0.0219 -0.4279
  263SOL     OW  787   0.823   0.638   1.398 -0.0559  0.2884  0.1467
  263SOL    HW1  788   0.739   0.621   1.356 -1.4362 -0.7436  3.0433
  263SOL    HW2  789   0.850   0.554   1.434  0.1061  1.3316  2.7215
  264SOL     OW  790   1.559   3.866   2.417 -0.4228 -0.0082 -0.0146
  264SOL    HW1  791   1.593   3.806   2.350 -1.8681  0.7971 -1.5444
  264SOL    HW2  792   1.611   3.946   2.406 -1.6489  0.6626 -1.2773
  265SOL     OW  793   3.648   1.303   0.180  0.8901 -0.2147 -0.4981
  265SOL    HW1  794   3.687   1.284   0.095  0.4554 -0.7113 -0.5918
  265SOL    HW2  795   3.688   1.386   0.207  0.6241  0.2185 -1.4296
  266SOL     OW  796   1.842   2.651   0.170 -0.1007  0.3360 -0.2477
  266SOL    HW1  797   1.820   2.643   0.263  0.8520 -1.4143 -0.1185
  266SOL    HW2  798   1.822   2.742   0.148 -1.3682  0.5026  1.3840
  267SOL     OW  799   1.296   2.784   3.610  0.4984  0.0377  0.5581
  267SOL    HW1  800   1.335   2.870   3.600  1.3984 -0.5431 -1.1830
  267SOL    HW2  801   1.359   2.723   3.572 -0.7134 -1.2565  0.5047
  268SOL     OW  802   0.286   1.800   2.788 -0.4301  0.2958  0.2912
  268SOL    HW1  803   0.212   1.859   2.784  0.2605  1.3213  1.6944
  268SOL    HW2  804   0.248   1.713   2.798 -1.4602  0.8656  1.5948
  269SOL     OW  805   2.591   1.922   0.522  0.2494  0.1773  0.3515
  269SOL    HW1  806   2.578   1.899   0.430 -1.0444  2.2906 -0.0703
  269SOL    HW2  807   2.620   1.841   0.563  0.9360 -0.8059 -1.9216
  270SOL     OW  808   4.016   0.474   2.627  0.0709 -0.4418  0.4695
  270SOL    HW1  809   3.921   0.463   2.624  0.0701 -0.5028  0.6734
  270SOL    HW2  810   4.028   0.564   2.658  0.0747 -0.9274  1.9612
  271SOL     OW  811   3.058   1.075   2.738 -0.3389  0.5013  0.0360
  271SOL    HW1  812   2.986   1.012   2.730 -1.8463  2.1583  0.0615
  271SOL    HW2  813   3.065   1.092   2.832 -1.0031  1.5208 -0.0832
  272SOL     OW  814   2.165   2.438   3.137  0.3826 -0.3699 -0.7481
  272SOL    HW1  815   2.215   2.514   3.166  0.3548 -0.7201  0.2817
  272SOL    HW2  816   2.074   2.461   3.155  0.3632 -0.5929 -0.5559
  273SOL     OW  817   3.072   0.100   3.719 -0.4315 -0.0136  0.1769
  273SOL    HW1  818   3.167   0.091   3.716 -0.5109 -0.6982 -1.5452
  273SOL    HW2  819   3.057   0.193   3.740  0.6262  0.3119 -0.4345
  274SOL     OW  820   0.791   2.224   2.545 -0.5915  0.1111 -0.5570
  274SOL    HW1  821   0.781   2.256   2.635 -0.3890  1.4038 -0.9728
  274SOL    HW2  822   0.738   2.144   2.542  0.3642 -0.6203  1.0299
  275SOL     OW  823   1.338   1.767   2.672 -0.7991  0.0383 -0.4380
  275SOL    HW1  824   1.254   1.750   2.714 -0.6669 -0.7636 -0.4812
  275SOL    HW2  825   1.316   1.808   2.589 -1.0645  1.6467  0.3798
  276SOL     OW  826   3.728   3.997   3.465 -0.2570 -0.4374  0.4471
  276SOL    HW1  827   3.775   3.920   3.434 -0.7331 -0.8590  0.7592
  276SOL    HW2  828   3.678   4.027   3.389  3.1664  2.1833 -1.0787
  277SOL     OW  829   3.594   1.917   3.656 -0.1082  0.4641 -0.1124
  277SOL    HW1  830   3.596   1.974   3.734  1.1146 -0.8465  0.8711
  277SOL    HW2  831   3.569   1.831   3.691  1.2468 -0.3321 -1.0117
  278SOL     OW  832   2.711   2.441   1.089 -0.4961 -0.5451  0.6548
  278SOL    HW1  833   2.635   2.405   1.043  0.5566 -0.9506 -0.8539
  278SOL    HW2  834   2.687   2.531   1.108 -1.7946 -0.9920  1.2746
  279SOL     OW  835   2.316   3.509   3.525  0.2351  0.2297  0.1621
  279SOL    HW1  836   2.221   3.507   3.520  0.2178 -0.3918  0.6198
  279SOL    HW2  837   2.334   3.527   3.618  0.5641  0.9456 -0.0322
  280SOL     OW  838   1.906   1.021   3.786  0.6569 -0.7204 -0.3071
  280SOL    HW1  839   1.838   1.085   3.761  1.4674 -0.2255 -1.3496
  280SOL    HW2  840   1.870   0.976   3.862  0.8483  2.3539  1.7984
  281SOL     OW  841   0.096   1.859   1.314 -0.1991  0.1080  0.2145
  281SOL    HW1  842   0.120   1.769   1.335 -0.1101  0.2556  0.7781
  281SOL    HW2  843   0.156   1.885   1.245 -0.7319 -0.5175 -0.4950
  282SOL     OW  844   2.698   3.241   2.047 -0.0976  0.0330 -0.2858
  282SOL    HW1  845   2.665   3.159   2.085 -0.4525  0.1657 -0.2970
  282SOL    HW2  846   2.620   3.296   2.039  0.1757  0.4703 -0.0278
  283SOL     OW  847   3.473   3.409   2.949  0.5516 -0.1504 -0.0588
  283SOL    HW1  848   3.393   3.461   2.949 -0.1922 -1.2371 -1.0658
  283SOL    HW2  849   3.474   3.366   3.035 -0.4627 -0.8464 -0.3749
  284SOL     OW  850   1.992   3.588   0.266 -0.5585  0.3564 -0.4541
  284SOL    HW1  851   2.053   3.549   0.203  0.4111  0.5320  0.3373
  284SOL    HW2  852   1.971   3.516   0.326 -0.5782  0.4690 -0.3258
  285SOL     OW  853   2.275   0.218   2.134 -0.2476 -0.4600 -0.5371
  285SOL    HW1  854   2.223   0.250   2.208  0.4363  0.8787 -0.6020
  285SOL    HW2  855   2.350   0.277   2.130  0.8333 -1.8117 -0.9954
  286SOL     OW  856   1.225   1.039   1.231  0.3797  0.4799  0.2228
  286SOL    HW1  857   1.136   1.067   1.252  0.0780 -1.2296  1.3970
  286SOL    HW2  858   1.226   1.035   1.135 -0.7065  0.8560  0.1775
  287SOL     OW  859   3.237   0.683   0.324  0.2131  0.7867 -0.0124
  287SOL    HW1  860   3.287   0.699   0.244 -0.3232  1.5131 -0.2146
  287SOL    HW2  861   3.158   0.736   0.314 -0.1101  0.4729  0.7660
  288SOL     OW  862   3.050   2.886   2.311  0.1782  0.1187  0.4314
  288SOL    HW1  863   2.968   2.856   2.272  1.4620 -1.2450 -1.3659
  288SOL    HW2  864   3.028   2.970   2.351 -2.2121 -0.4810  0.5173
  289SOL     OW  865   0.752  -0.024   3.281 -0.2466  0.2723 -0.2815
  289SOL    HW1  866   0.706   0.014   3.356  1.2802  0.9407  0.3550
  289SOL    HW2  867   0.836   0.021   3.279  0.0953 -0.3604 -1.8828
  290SOL     OW  868   2.227   0.420   0.272  0.4819  0.0501  0.0092
  290SOL    HW1  869   2.198   0.340   0.314  2.2050 -0.4689  0.2856
  290SOL    HW2  870   2.207   0.408   0.179  0.0555 -0.3698  0.1556
  291SOL     OW  871   3.089   0.605   2.541 -0.0986 -0.2089 -0.0795
  291SOL    HW1  872   3.089   0.588   2.447  1.4233 -0.0961 -0.1305
  291SOL    HW2  873   3.069   0.520   2.581  1.2654 -0.7403 -0.4787
  292SOL     OW  874   2.442   3.579   3.071  0.3157  0.2099  0.4526
  292SOL    HW1  875   2.386   3.624   3.134 -0.4717  1.1821 -0.8890
  292SOL    HW2  876   2.427   3.486   3.088 -0.5636  0.4571  1.1085
  293SOL     OW  877   3.692   3.665   3.656 -0.1240 -0.3955 -0.3414
  293SOL    HW1  878   3.760   3.647   3.591 -1.0410 -1.0452 -1.1510
  293SOL    HW2  879   3.686   3.585   3.708  1.0025  0.3178  0.9609
  294SOL     OW  880   2.873   0.894   2.628  0.0906  0.0843  0.1161
  294SOL    HW1  881   2.900   0.813   2.670 -0.8781  0.5002  1.6299
  294SOL    HW2  882   2.924   0.898   2.547  0.7640 -1.6003  0.4244
  295SOL     OW  883   1.252   2.978   3.196  0.6426  0.1854 -0.0806
  295SOL    HW1  884   1.331   2.926   3.208  0.7245  0.5820  1.2133
  295SOL    HW2  885   1.180   2.917   3.212  0.7137  0.1726  0.1887
  296SOL     OW  886   0.004   0.304   0.242  0.1313 -0.4601 -0.3805
  296SOL    HW1  887  -0.022   0.354   0.320 -1.8905  1.2479 -2.0142
  296SOL    HW2  888   0.100   0.298   0.247  0.1656  0.9616  1.4244
  297SOL     OW  889   3.513   3.376   3.574  0.5637  0.5659 -0.3529
  297SOL    HW1  890   3.504   3.296   3.625 -0.3553  0.3246 -0.8649
  297SOL    HW2  891   3.434   3.426   3.594  0.7479  0.9798 -0.6479
  298SOL     OW  892   3.458   2.911   1.633 -0.2104 -0.3512  0.1867
  298SOL    HW1  893   3.536   2.908   1.576 -0.7340 -0.8486 -0.5169
  298SOL    HW2  894   3.488   2.960   1.710  0.8706 -0.7422  0.0427
  299SOL     OW  895   1.062   1.852   0.486 -0.3485  0.4585  0.0511
  299SOL    HW1  896   0.998   1.782   0.475 -0.9898  1.1410 -0.7013
  299SOL    HW2  897   1.102   1.835   0.572  2.1188 -2.9110 -1.5143
  300SOL     OW  898   2.656   3.915   3.315  0.4732 -0.2491 -0.3589
  300SOL    HW1  899   2.727   3.944   3.373 -0.5600 -1.5919  1.6909
  300SOL    HW2  900   2.629   3.831   3.351 -1.1831 -0.4663 -1.9848
  301SOL     OW  901   2.765   1.317   2.954  0.4625  0.0776 -0.0015
  301SOL    HW1  902   2.670   1.315   2.939  0.4237 -0.0821  0.2708
  301SOL    HW2  903   2.774   1.336   3.047  0.7071  1.0380 -0.2044
  302SOL     OW  904   0.652   1.565   1.820  0.0246  0.0370  0.2872
  302SOL    HW1  905   0.601   1.486   1.836  1.0070 -1.0779 -1.6119
  302SOL    HW2  906   0.597   1.618   1.763 -0.2590  0.2835  0.7904
  303SOL     OW  907   3.694   0.167   2.078 -0.2635  0.1134  0.2505
  303SOL    HW1  908   3.684   0.207   2.165  1.5216  0.9848  0.0888
  303SOL    HW2  909   3.685   0.240   2.017 -0.9668 -0.4096 -0.2892
  304SOL     OW  910   2.195   0.594   2.435 -0.4285 -0.3724 -0.4970
  304SOL    HW1  911   2.206   0.513   2.484  1.2614 -0.2611 -0.6247
  304SOL    HW2  912   2.257   0.586   2.362  2.1817  2.3197  1.2155
  305SOL     OW  913   0.941   1.219   0.900  0.3024  0.0506 -0.1261
  305SOL    HW1  914   1.030   1.250   0.882 -0.5191  3.7826  1.3735
  305SOL    HW2  915   0.934   1.218   0.995 -1.6198  1.2956 -0.1900
  306SOL     OW  916   1.607   1.975   2.043 -0.2770 -0.1312 -0.1545
  306SOL    HW1  917   1.649   1.932   1.969  4.2846  3.4263 -0.1026
  306SOL    HW2  918   1.575   2.058   2.007  1.4976  1.4033  1.5761
  307SOL     OW  919   2.824   1.019   3.682  0.6032  0.0549 -0.0638
  307SOL    HW1  920   2.885   0.966   3.734  0.4412 -0.4072 -0.3338
  307SOL    HW2  921   2.806   0.965   3.605  0.4556  0.5212 -0.3608
  308SOL     OW  922   0.969   1.296   0.571  0.1636  0.2296  0.2725
  308SOL    HW1  923   0.921   1.331   0.496 -0.3666 -0.0873  0.4577
  308SOL    HW2  924   0.901   1.274   0.635  0.6765  1.7018  1.3735
  309SOL     OW  925   2.754   2.353   3.199  0.3608  0.3501 -0.1807
  309SOL    HW1  926   2.662   2.328   3.187 -0.1259  1.0710  1.5842
  309SOL    HW2  927   2.789   2.362   3.111 -1.6472  1.3739 -0.9334
  310SOL     OW  928   3.245   2.592   3.143 -0.4283  1.0404  0.2139
  310SOL    HW1  929   3.205   2.660   3.089 -0.9192  0.0035 -0.7712
  310SOL    HW2  930   3.330   2.629   3.169 -0.9222  2.2420  0.1829
  311SOL     OW  931   1.727   1.718   3.606  0.3074  0.0323  0.4039
  311SOL    HW1  932   1.632   1.713   3.614  0.2582 -0.3466 -0.3257
  311SOL    HW2  933   1.742   1.753   3.518  0.8439  0.2680  0.5834
  312SOL     OW  934   1.088   0.056   0.224 -0.0014 -0.6731  0.0155
  312SOL    HW1  935   1.179   0.049   0.196  0.2503  0.0560  0.6148
  312SOL    HW2  936   1.054  -0.034   0.219  1.4124 -1.3970  1.9707
  313SOL     OW  937   0.066   2.739   3.244 -0.1680  0.4136 -0.5054
  313SOL    HW1  938   0.079   2.678   3.170  1.7435 -0.0758  0.1598
  313SOL    HW2  939   0.135   2.804   3.233  0.9493 -0.3386  1.4423
  314SOL     OW  940   1.384   2.294   2.388  0.2484 -0.4228  0.2097
  314SOL    HW1  941   1.468   2.253   2.410 -0.1084 -0.8706  0.7441
  314SOL    HW2  942   1.326   2.220   2.368 -0.4532 -0.2083  1.3613
  315SOL     OW  943   2.756   0.273   3.349  0.0175  0.1399 -0.3212
  315SOL    HW1  944   2.827   0.311   3.401  0.2661  0.3313 -0.7990
  315SOL    HW2  945   2.686   0.337   3.354 -0.3209 -0.2801  0.5781
  316SOL     OW  946   0.518   1.385   2.970 -0.1557 -0.3251  0.3026
  316SOL    HW1  947   0.440   1.339   3.001 -1.0210  0.1095 -1.1492
  316SOL    HW2  948   0.542   1.442   3.044 -2.7345  1.4023 -0.0418
  317SOL     OW  949   2.943   3.695   0.588 -0.3064  0.5464  0.2005
  317SOL    HW1  950   2.915   3.603   0.589  1.5914 -0.0844  0.8536
  317SOL    HW2  951   3.034   3.691   0.558 -0.2955  2.2608 -0.0656
  318SOL     OW  952   1.225   1.566   2.922  0.1187 -0.4034 -0.3269
  318SOL    HW1  953   1.205   1.647   2.876 -0.3400 -0.2930  0.0588
  318SOL    HW2  954   1.157   1.505   2.895  0.1438 -0.4923 -0.1923
  319SOL     OW  955   2.182   2.554   1.467 -0.4541 -0.0186  0.1942
  319SOL    HW1  956   2.148   2.573   1.380  0.1174 -1.8101 -0.4691
  319SOL    HW2  957   2.163   2.633   1.518 -1.2817  0.8613 -1.3922
  320SOL     OW  958   2.143   3.774   2.227  0.0725  0.2713  0.2578
  320SOL    HW1  959   2.064   3.826   2.210  0.7709  1.0372 -0.8052
  320SOL    HW2  960   2.124   3.728   2.308 -2.3639 -1.3332 -1.1029
  321SOL     OW  961   0.047   0.354   1.525  0.2549 -0.9171  0.1830
  321SOL    HW1  962   0.047   0.276   1.470 -0.9489 -0.1522 -0.9554
  321SOL    HW2  963  -0.035   0.348   1.574 -1.2617  0.9249 -1.9265
  322SOL     OW  964   1.889   2.371   0.232 -0.0159  0.0425  0.1785
  322SOL    HW1  965   1.950   2.372   0.306  0.1380  0.7853  0.0532
  322SOL    HW2  966   1.861   2.462   0.224  0.3463  0.0593 -0.9894
  323SOL     OW  967   1.062   1.358   2.879  0.5170 -0.1055  1.1376
  323SOL    HW1  968   1.001   1.351   2.952  0.5582  0.5338  1.2439
  323SOL    HW2  969   1.055   1.275   2.833 -0.0611 -0.2255  1.4365
  324SOL     OW  970   0.858   0.838   0.879  0.4761  0.7095  0.0888
  324SOL    HW1  971   0.792   0.852   0.811 -0.7833 -2.3052  0.5219
  324SOL    HW2  972   0.818   0.875   0.958 -2.1248 -3.1694  0.9152
  325SOL     OW  973   0.897   0.189   3.186 -0.1965 -0.5999 -0.2888
  325SOL    HW1  974   0.882   0.262   3.247 -1.5815 -0.7929 -0.3744
  325SOL    HW2  975   0.888   0.228   3.099  1.2982 -0.4272 -0.3946
  326SOL     OW  976   0.199  -0.016   3.037  0.0195  0.2409 -0.4368
  326SOL    HW1  977   0.272   0.046   3.028 -0.7378  1.0770 -1.1016
  326SOL    HW2  978   0.136   0.030   3.094 -0.2186 -0.2367 -0.3130
  327SOL     OW  979   0.647   0.939   0.323  0.0698  0.6253  0.4382
  327SOL    HW1  980   0.569   0.924   0.377 -0.6142 -2.0963 -1.1082
  327SOL    HW2  981   0.674   0.852   0.295  1.1008  1.7795 -2.5794
  328SOL     OW  982   0.566   1.183   1.095 -0.1108  0.4195  0.4870
  328SOL    HW1  983   0.540   1.265   1.137 -1.3040  1.1251 -1.5028
  328SOL    HW2  984   0.531   1.189   1.006  3.2222 -0.4752 -1.0502
  329SOL     OW  985   1.203   0.421   2.633  0.2046 -0.1246  0.6380
  329SOL    HW1  986   1.175   0.461   2.551  0.3296 -1.9624 -0.3511
  329SOL    HW2  987   1.129   0.434   2.693 -0.6838 -0.4758 -0.3663
  330SOL     OW  988   3.292   0.752   2.146  0.0813  0.1634  0.4396
  330SOL    HW1  989   3.309   0.684   2.211 -0.9508 -0.8090 -0.2696
  330SOL    HW2  990   3.354   0.822   2.167  0.2449 -0.4245  2.0231
  331SOL     OW  991   0.640   3.051   3.701  0.1033 -0.1621 -0.0257
  331SOL    HW1  992   0.563   3.099   3.730 -0.4004 -0.1497 -1.3417
  331SOL    HW2  993   0.712   3.114   3.711  0.1366 -0.4645  2.0755
  332SOL     OW  994   3.594   1.495   0.813 -0.0607 -0.4084 -1.0183
  332SOL    HW1  995   3.562   1.448   0.890 -2.1898  0.2210 -1.4721
  332SOL    HW2  996   3.635   1.574   0.848 -0.6146 -0.3450 -0.5116
  333SOL     OW  997   1.284   0.043   3.424 -0.7139  0.5428 -0.5492
  333SOL    HW1  998   1.312   0.135   3.424  0.7496  0.1108 -0.0988
  333SOL    HW2  999   1.351  -0.003   3.374 -2.9560  0.1099 -3.4213
  334SOL     OW 1000   1.937   1.629   2.382  0.1925  0.1291  0.3973
  334SOL    HW1 1001   1.854   1.634   2.334  0.6632  0.4571 -0.4067
  334SOL    HW2 1002   1.912   1.633   2.474 -0.7141 -0.2217  0.1752
  335SOL     OW 1003   0.837   2.988   2.710 -0.1297 -0.0846 -0.2381
  335SOL    HW1 1004   0.784   3.060   2.744  0.3375  1.0052 -1.6944
  335SOL    HW2 1005   0.774   2.926   2.675 -0.5399  1.2052 -1.9588
  336SOL     OW 1006   2.807   0.617   1.610  0.8017  0.5556  0.4014
  336SOL    HW1 1007   2.894   0.584   1.585  1.3191  1.5679  0.8074
  336SOL    HW2 1008   2.825   0.702   1.650 -0.5075  1.5147 -0.9435
  337SOL     OW 1009   3.848   2.438   1.386  0.0149  0.5564  0.3116
  337SOL    HW1 1010   3.898   2.497   1.443  0.9817  0.0780 -0.0120
  337SOL    HW2 1011   3.790   2.495   1.336  0.7254  1.2099  0.2183
  338SOL     OW 1012   1.984   3.045   0.751 -0.0194 -0.0773 -0.0614
  338SOL    HW1 1013   1.994   3.133   0.787  0.1261  1.3378 -3.2085
  338SOL    HW2 1014   1.910   3.008   0.798 -0.3879  1.9150  1.0333
  339SOL     OW 1015   3.672   3.942   3.186  0.7328 -0.5293  0.5422
  339SOL    HW1 1016   3.763   3.929   3.214  0.6104 -1.4253  0.5537
  339SOL    HW2 1017   3.673   4.024   3.138  1.6190 -0.7077  0.2433
  340SOL     OW 1018   3.021   1.320   1.937  0.1869 -0.0652 -0.2828
  340SOL    HW1 1019   3.102   1.371   1.947  1.7839 -2.8344  2.9255
  340SOL    HW2 1020   2.965   1.353   2.007  0.1116 -0.7202 -0.0275
  341SOL     OW 1021   1.161   0.179   2.954  0.7102  0.3242  0.3460
  341SOL    HW1 1022   1.231   0.216   2.899 -0.9824  3.7144  0.2202
  341SOL    HW2 1023   1.098   0.143   2.892 -0.1478  2.1516  0.1085
  342SOL     OW 1024   2.201   0.163   3.221  0.0714 -0.6783  0.1630
  342SOL    HW1 1025   2.143   0.116   3.161  0.3484 -0.0756 -0.5858
  342SOL    HW2 1026   2.166   0.143   3.308 -0.1726 -1.7844 -0.1731
  343SOL     OW 1027   3.686   1.193   2.980 -0.3646  0.4597 -0.0560
  343SOL    HW1 1028   3.695   1.262   3.046  0.8888 -0.9945  1.3599
  343SOL    HW2 1029   3.669   1.114   3.031 -0.2269 -0.5639 -1.5565
  344SOL     OW 1030   1.897   0.129   0.533 -0.1608 -0.6509 -0.2859
  344SOL    HW1 1031   1.850   0.209   0.559 -1.2418 -1.1135 -0.7605
  344SOL    HW2 1032   1.868   0.063   0.596 -1.6333 -1.4016 -1.6800
  345SOL     OW 1033   1.122   0.656   0.106 -0.2554  0.1679 -0.1304
  345SOL    HW1 1034   1.143   0.587   0.170  1.4811 -0.9805 -1.8443
  345SOL    HW2 1035   1.096   0.731   0.160 -1.0984 -1.4279  1.8449
  346SOL     OW 1036   3.363   3.921   0.574  0.6723  0.0054 -0.2922
  346SOL    HW1 1037   3.411   3.970   0.640  1.1634  0.7999 -1.2138
  346SOL    HW2 1038   3.405   3.835   0.571 -1.0604 -1.0696  2.3246
  347SOL     OW 1039   1.792   2.437   0.718 -0.6981 -0.2696 -0.7031
  347SOL    HW1 1040   1.698   2.451   0.712 -0.9800 -1.4152  0.5968
  347SOL    HW2 1041   1.803   2.370   0.786  1.1844  1.4240  0.8062
  348SOL     OW 1042   1.336   1.756   3.745 -0.2120  0.3863  0.4114
  348SOL    HW1 1043   1.272   1.740   3.814 -0.2167  0.6274  0.4639
  348SOL    HW2 1044   1.379   1.838   3.770  1.4728 -0.7356  1.4087
  349SOL     OW 1045   3.026   2.726   1.215  0.1875  0.1381 -0.3550
  349SOL    HW1 1046   2.988   2.750   1.299 -0.6878  0.6142 -0.8627
  349SOL    HW2 1047   3.039   2.809   1.169  0.7930 -0.1028 -0.6361
  350SOL     OW 1048   2.095   1.394   1.118 -0.5036  0.5374  0.2273
  350SOL    HW1 1049   2.038   1.323   1.090 -2.2101  1.4307  1.2673
  350SOL    HW2 1050   2.059   1.472   1.077 -0.5299  1.2309  1.5143
  351SOL     OW 1051   0.861   3.682   3.333 -0.0681  0.1777  0.3252
  351SOL    HW1 1052   0.819   3.764   3.357 -0.3449 -0.0658  0.6774
  351SOL    HW2 1053   0.955   3.703   3.329 -0.1400  0.5128  0.3853
  352SOL     OW 1054   2.896   3.367   2.163  0.0498 -0.0427  0.1164
  352SOL    HW1 1055   2.825   3.305   2.149  0.1858 -0.0322 -0.7048
  352SOL    HW2 1056   2.853   3.447   2.192 -0.2807 -0.0353 -0.3829
  353SOL     OW 1057   0.340   1.257   3.131 -0.4871  0.2298 -0.1426
  353SOL    HW1 1058   0.378   1.172   3.109  0.4473  0.6816 -0.3288
  353SOL    HW2 1059   0.314   1.249   3.222  0.0709 -0.0924 -0.0073
  354SOL     OW 1060   2.772   1.421   3.503 -0.5017 -0.2332 -0.4566
  354SOL    HW1 1061   2.852   1.459   3.539 -0.5170 -1.0341  0.4725
  354SOL    HW2 1062   2.706   1.435   3.570 -0.9295 -0.3495 -0.8467
  355SOL     OW 1063   0.528   2.440   0.202 -0.1601 -0.3610  0.0648
  355SOL    HW1 1064   0.482   2.502   0.145  2.5880  1.8217  0.0063
  355SOL    HW2 1065   0.482   2.357   0.189 -1.3605  0.6568 -3.2134
  356SOL     OW 1066   2.006   0.829   2.649  0.0467  0.1274 -0.1760
  356SOL    HW1 1067   1.950   0.817   2.726 -0.3197  0.7274 -0.3435
  356SOL    HW2 1068   2.084   0.777   2.668 -0.9353 -1.4446 -0.3428
  357SOL     OW 1069   1.550   1.742   0.588 -0.8912  0.2577  0.3876
  357SOL    HW1 1070   1.559   1.808   0.520 -3.1071 -0.9561 -1.2213
  357SOL    HW2 1071   1.568   1.659   0.544 -1.5607 -0.4925  1.4655
  358SOL     OW 1072   0.644   0.163   2.344 -0.2218 -0.0488 -0.1855
  358SOL    HW1 1073   0.566   0.163   2.400 -0.0007  1.3070  0.1624
  358SOL    HW2 1074   0.613   0.192   2.259  0.0730  1.6787  0.2635
  359SOL     OW 1075   3.953   2.288   0.909 -0.1720 -0.4376 -0.3141
  359SOL    HW1 1076   4.021   2.251   0.853  1.3416  0.4823  0.8310
  359SOL    HW2 1077   3.937   2.221   0.975  1.2438  0.1607  0.6858
  360SOL     OW 1078   0.633   2.123   1.080  0.1750  0.0985  0.1778
  360SOL    HW1 1079   0.593   2.046   1.120 -2.0066  0.6141 -0.9071
  360SOL    HW2 1080   0.608   2.195   1.137  1.3780  0.1721  0.6405
  361SOL     OW 1081   0.676   0.887   3.824  0.8827  0.2469  0.0043
  361SOL    HW1 1082   0.670   0.952   3.894  2.8294 -0.8187  1.2594
  361SOL    HW2 1083   0.699   0.938   3.746  1.9649  1.1585  0.8750
  362SOL     OW 1084   0.989   3.158   0.067 -0.3833 -0.4470 -0.2630
  362SOL    HW1 1085   1.065   3.144   0.124 -0.7108  1.7783  0.8076
  362SOL    HW2 1086   1.027   3.167  -0.021  0.5314  0.0824  0.1757
  363SOL     OW 1087   0.812   3.389   2.571 -0.9341  0.6703  0.1055
  363SOL    HW1 1088   0.902   3.369   2.545 -0.7969  0.7621  0.4942
  363SOL    HW2 1089   0.811   3.374   2.666 -1.9756 -1.7345 -0.2192
  364SOL     OW 1090   1.791   0.826   3.406  0.4106 -0.1586 -0.0344
  364SOL    HW1 1091   1.820   0.840   3.315 -2.3334 -1.2011 -1.1637
  364SOL    HW2 1092   1.852   0.879   3.458  0.3946  2.8012 -2.6875
  365SOL     OW 1093   3.490   1.844   0.367 -0.2837 -0.3574  0.6726
  365SOL    HW1 1094   3.451   1.835   0.280  1.0430  0.6867 -0.0648
  365SOL    HW2 1095   3.431   1.904   0.414 -0.0619  0.4933 -0.1193
  366SOL     OW 1096   0.667   1.441   2.168 -0.3752  0.1119  0.1206
  366SOL    HW1 1097   0.629   1.529   2.162 -1.4490 -0.2897  0.6408
  366SOL    HW2 1098   0.591   1.383   2.172  0.3177 -0.8801 -0.6079
  367SOL     OW 1099   1.547   1.070   2.159  0.1961  0.2954  0.0309
  367SOL    HW1 1100   1.583   1.000   2.214 -1.8845 -0.9402 -0.0728
  367SOL    HW2 1101   1.453   1.070   2.178 -0.1616  1.7223 -1.4772
  368SOL     OW 1102   0.260   0.921   1.767  0.0349  0.2728 -0.0564
  368SOL    HW1 1103   0.324   0.852   1.788 -0.5018 -0.7220 -1.5246
  368SOL    HW2 1104   0.264   0.929   1.672 -1.1542  1.0652 -0.0628
  369SOL     OW 1105   1.792   1.742   0.740 -0.3421 -0.4056 -0.0852
  369SOL    HW1 1106   1.708   1.705   0.768 -0.9219  0.2469 -0.9169
  369SOL    HW2 1107   1.823   1.790   0.816  0.3287 -2.3711  0.9579
  370SOL     OW 1108   0.234   3.547   3.554  0.3462  0.2459  0.2368
  370SOL    HW1 1109   0.229   3.459   3.590  0.4165  0.3339  0.4636
  370SOL    HW2 1110   0.294   3.539   3.480  0.7751  0.2103  0.5850
  371SOL     OW 1111   1.309   3.797   1.378  0.3392 -0.8706 -0.6020
  371SOL    HW1 1112   1.333   3.709   1.407  0.3755 -1.0305 -1.0985
  371SOL    HW2 1113   1.234   3.783   1.319 -1.1217 -0.3719  1.0504
  372SOL     OW 1114   2.326   2.199   0.119  0.6801  0.1504  0.7771
  372SOL    HW1 1115   2.268   2.142   0.069  0.6295 -0.3823  1.4247
  372SOL    HW2 1116   2.270   2.238   0.186  1.0853 -0.4858  1.5010
  373SOL     OW 1117   3.068   2.635   1.609 -0.5250 -0.7624  0.2294
  373SOL    HW1 1118   3.153   2.603   1.638 -0.1331 -0.2666 -0.3485
  373SOL    HW2 1119   3.005   2.574   1.647 -0.0339 -0.2315  1.9788
  374SOL     OW 1120   2.150   3.816   3.681 -0.2566 -0.6244 -0.2381
  374SOL    HW1 1121   2.198   3.840   3.760  0.5746  2.1405 -1.4363
  374SOL    HW2 1122   2.058   3.824   3.705 -0.0534 -1.7153  0.9417
  375SOL     OW 1123   2.767   3.435   1.328 -0.9020  0.5190  0.3004
  375SOL    HW1 1124   2.709   3.512   1.330  1.0482  2.0774  0.6032
  375SOL    HW2 1125   2.855   3.472   1.338  0.3599 -1.5249 -2.2148
  376SOL     OW 1126   0.366   1.774   0.680  0.4177 -0.1190 -0.5607
  376SOL    HW1 1127   0.280   1.773   0.723  0.5847  0.5577 -0.2020
  376SOL    HW2 1128   0.369   1.691   0.632 -0.1259 -0.5034  0.0425
  377SOL     OW 1129   0.093   0.191   2.226 -0.4448 -0.8281  0.7400
  377SOL    HW1 1130   0.147   0.207   2.303  0.4687  3.7480 -0.5399
  377SOL    HW2 1131   0.032   0.265   2.224 -0.0356 -0.3637 -3.1294
  378SOL     OW 1132   0.969   0.054   1.865  0.0982  0.4125  0.0189
  378SOL    HW1 1133   0.939   0.144   1.871  2.6837  1.3410  0.0329
  378SOL    HW2 1134   1.054   0.059   1.822  1.3563 -1.7541  1.9961
  379SOL     OW 1135   1.525   1.827   2.996  0.0708 -0.1892 -0.0274
  379SOL    HW1 1136   1.593   1.859   3.055 -1.0149  1.2793  0.4793
  379SOL    HW2 1137   1.480   1.906   2.966  0.6127 -0.8673 -2.8906
  380SOL     OW 1138   1.400   3.103   1.333  0.5026  0.0361 -1.1187
  380SOL    HW1 1139   1.484   3.146   1.315  0.7831 -0.6607 -1.5453
  380SOL    HW2 1140   1.424   3.012   1.353 -0.0333  0.1723  0.2347
  381SOL     OW 1141   2.990   2.579   2.182  0.2598  0.0642 -0.4745
  381SOL    HW1 1142   2.898   2.551   2.182  0.0540  0.7136  0.0767
  381SOL    HW2 1143   3.005   2.607   2.092  0.1674 -0.8142 -0.7751
  382SOL     OW 1144   3.660   3.019   2.486 -0.0053 -0.5865  0.1557
  382SOL    HW1 1145   3.565   3.017   2.474  0.0411  1.1779 -0.8350
  382SOL    HW2 1146   3.691   3.086   2.425  1.9667 -1.5263  0.0259
  383SOL     OW 1147   0.742   0.145   2.076 -0.2172  0.4881  0.7285
  383SOL    HW1 1148   0.750   0.054   2.104 -0.5977  0.5839  1.1666
  383SOL    HW2 1149   0.752   0.142   1.981 -0.3243 -0.0203  0.7300
  384SOL     OW 1150   0.381   3.776   3.576  0.5718  0.0846  0.1093
  384SOL    HW1 1151   0.411   3.761   3.487 -2.8360  0.4351 -1.2689
  384SOL    HW2 1152   0.358   3.689   3.608  1.3349  0.0120  0.4613
  385SOL     OW 1153   2.722   1.474   3.223 -0.2485 -0.2777  0.3177
  385SOL    HW1 1154   2.626   1.478   3.230 -0.2979  2.4775 -0.5643
  385SOL    HW2 1155   2.752   1.456   3.312 -1.5729  2.5387  1.4851
  386SOL     OW 1156   0.108   2.289   2.713 -0.0462 -0.1323 -0.3674
  386SOL    HW1 1157   0.053   2.279   2.791 -0.6000 -0.1445 -0.7573
  386SOL    HW2 1158   0.186   2.236   2.732 -0.3888 -0.5235 -0.0214
  387SOL     OW 1159   2.742   3.426   3.375  0.0153  0.0646 -0.1806
  387SOL    HW1 1160   2.831   3.448   3.400  0.3179 -1.5086  0.2066
  387SOL    HW2 1161   2.738   3.444   3.281  0.7302  0.1534 -0.1966
  388SOL     OW 1162   0.585   3.929   0.417 -0.3880 -0.3574  0.3759
  388SOL    HW1 1163   0.664   3.983   0.412 -0.6799 -0.0026 -0.5041
  388SOL    HW2 1164   0.516   3.982   0.378 -0.9121 -0.9477  0.4759
  389SOL     OW 1165   2.403   0.343   3.854  0.2663  0.1321 -0.3821
  389SOL    HW1 1166   2.384   0.265   3.802 -0.1615 -0.0661  0.0690
  389SOL    HW2 1167   2.436   0.406   3.790  2.4135 -1.0121 -0.4976
  390SOL     OW 1168   3.020   1.651   3.218  0.6987 -0.1520 -0.6874
  390SOL    HW1 1169   2.949   1.684   3.272  1.6947 -0.0632  0.6129
  390SOL    HW2 1170   3.044   1.567   3.256  1.9759  0.2994 -0.4315
  391SOL     OW 1171   1.762   1.528   3.812  0.2835 -0.1556  0.0751
  391SOL    HW1 1172   1.749   1.597   3.747  0.5258 -1.6134 -1.5802
  391SOL    HW2 1173   1.856   1.510   3.811  0.0111 -1.7171 -0.8474
  392SOL     OW 1174   1.349   0.382   3.750  0.4287  0.3421  0.0925
  392SOL    HW1 1175   1.435   0.368   3.788  0.6759  2.0468  0.2731
  392SOL    HW2 1176   1.300   0.303   3.770  2.2956 -1.1727 -1.0480
  393SOL     OW 1177   0.680   2.721   1.089 -0.2037  0.1351  0.3230
  393SOL    HW1 1178   0.628   2.764   1.021 -1.5724 -1.0541  0.5520
  393SOL    HW2 1179   0.671   2.627   1.070  2.0288 -0.1232  0.2905
  394SOL     OW 1180   0.315   3.598   3.124  0.3066 -0.5008 -0.7847
  394SOL    HW1 1181   0.367   3.548   3.060  0.2146 -0.3330 -0.9916
  394SOL    HW2 1182   0.257   3.533   3.164  0.1661 -0.5567 -1.0749
  395SOL     OW 1183   1.774   2.900   3.650  0.1711 -0.4527  0.1276
  395SOL    HW1 1184   1.822   2.858   3.722  0.9949  1.3159  0.6480
  395SOL    HW2 1185   1.732   2.827   3.604  1.2282 -1.8034  1.2243
  396SOL     OW 1186   2.880   2.185   2.045 -0.3386 -0.2912  0.0281
  396SOL    HW1 1187   2.801   2.161   2.093  0.7657 -3.9252  0.3417
  396SOL    HW2 1188   2.864   2.155   1.956  0.0729  0.5304 -0.3383
  397SOL     OW 1189   0.870   1.851   2.972 -0.4421 -0.2271 -0.3521
  397SOL    HW1 1190   0.821   1.933   2.977  0.3464  0.2504 -0.3317
  397SOL    HW2 1191   0.803   1.783   2.963 -1.3220  0.0964  2.6222
  398SOL     OW 1192   0.063   1.639   3.865 -0.9932 -0.3812  0.3117
  398SOL    HW1 1193   0.111   1.710   3.906  0.0142 -1.4797  1.0846
  398SOL    HW2 1194  -0.021   1.637   3.910 -0.7292 -0.1877  0.8122
  399SOL     OW 1195   2.491   1.278   2.963  0.4837 -0.6226  0.4878
  399SOL    HW1 1196   2.438   1.212   3.008 -0.1019 -0.3853  0.1691
  399SOL    HW2 1197   2.427   1.340   2.929  1.0559  0.3193  1.1030
  400SOL     OW 1198   3.479   2.821   1.041 -0.0336  0.0404  0.1459
  400SOL    HW1 1199   3.467   2.790   1.131  0.9864 -1.0309 -0.0506
  400SOL    HW2 1200   3.494   2.915   1.049  0.3850 -0.0960  1.1356
  401SOL     OW 1201   1.005   2.358   3.079 -0.2800 -0.4133 -0.4686
  401SOL    HW1 1202   0.985   2.319   3.164  0.2618 -0.2622 -0.2642
  401SOL    HW2 1203   0.932   2.418   3.062 -1.7451 -2.3510 -1.3448
  402SOL     OW 1204   1.598   1.431   4.020  0.3170  0.3693  0.4550
  402SOL    HW1 1205   1.526   1.464   3.967 -0.0433 -0.0281  0.6959
  402SOL    HW2 1206   1.665   1.406   3.956  0.4596  1.2298  0.2514
  403SOL     OW 1207   0.294   1.494   3.986 -0.1963 -0.1773 -0.4013
  403SOL    HW1 1208   0.286   1.571   3.930 -0.8144 -1.0536 -1.5403
  403SOL    HW2 1209   0.379   1.456   3.963  0.6185  0.7141  0.9307
  404SOL     OW 1210   2.377   3.824   2.368  0.1224  0.3307  0.1716
  404SOL    HW1 1211   2.300   3.877   2.346  0.1442  0.0967 -0.4878
  404SOL    HW2 1212   2.420   3.808   2.284 -0.8806 -2.3084  0.0737
  405SOL     OW 1213   3.162   2.353   1.556 -0.0545  0.0940  0.1921
  405SOL    HW1 1214   3.163   2.354   1.651 -0.0749 -1.2896  0.2354
  405SOL    HW2 1215   3.254   2.356   1.531  0.1006 -1.9266  0.3573
  406SOL     OW 1216   0.752   2.047   1.980 -0.7613  0.3093 -0.0738
  406SOL    HW1 1217   0.742   2.105   2.056  1.4785  0.3148  0.2837
  406SOL    HW2 1218   0.801   1.972   2.014 -2.6688 -1.3326 -0.7926
  407SOL     OW 1219   1.547   2.887   1.391 -0.3300  0.2123 -0.2150
  407SOL    HW1 1220   1.564   2.829   1.466 -0.6430 -0.0547 -0.3511
  407SOL    HW2 1221   1.628   2.883   1.339  0.4543  1.5195  0.8357
  408SOL     OW 1222   2.741   1.158   4.009  0.2364  0.3672  0.2560
  408SOL    HW1 1223   2.646   1.159   4.013  0.1615 -1.3167 -0.2262
  408SOL    HW2 1224   2.764   1.234   3.956 -0.8446  0.7548  0.3210
  409SOL     OW 1225   3.482   1.636   0.102  0.6807  0.5656 -0.6675
  409SOL    HW1 1226   3.410   1.581   0.069 -0.7344  2.6588 -1.2773
  409SOL    HW2 1227   3.561   1.598   0.065 -0.1415 -1.5120 -0.4028
  410SOL     OW 1228   1.188   2.501   0.348 -0.1539  0.4745  0.0422
  410SOL    HW1 1229   1.165   2.591   0.327  1.0766  0.8334  0.1134
  410SOL    HW2 1230   1.133   2.447   0.292 -0.9143  1.2708  0.0178
  411SOL     OW 1231   2.438   1.434   3.216  0.3856  0.3784 -0.0350
  411SOL    HW1 1232   2.484   1.359   3.180 -0.3399  0.2301 -0.6609
  411SOL    HW2 1233   2.416   1.408   3.306  0.0973 -0.1687 -0.2635
  412SOL     OW 1234   1.784   3.955   2.972  0.6638  0.2411 -0.2882
  412SOL    HW1 1235   1.728   3.918   3.040 -0.6228  1.9282 -0.3686
  412SOL    HW2 1236   1.740   4.036   2.945  2.5236  1.0232 -1.2150
  413SOL     OW 1237   2.382   1.812   0.018  0.4624  0.1424  0.0478
  413SOL    HW1 1238   2.349   1.825   0.107  1.5463  0.7944  0.3682
  413SOL    HW2 1239   2.446   1.881   0.006 -0.3811  0.6882 -1.6142
  414SOL     OW 1240   0.669   2.797   1.828 -0.5304 -0.2563  0.3744
  414SOL    HW1 1241   0.672   2.803   1.732 -1.9460 -0.6502  0.2823
  414SOL    HW2 1242   0.738   2.856   1.858  0.3951 -0.6423 -0.8974
  415SOL     OW 1243   1.757   3.832   1.019  0.1289  0.2701  0.2084
  415SOL    HW1 1244   1.711   3.867   1.096  0.5197  1.0862  0.0853
  415SOL    HW2 1245   1.850   3.841   1.040  0.2436  0.7807 -0.4627
  416SOL     OW 1246   1.118   0.807   0.876 -0.0633 -0.4726 -0.4073
  416SOL    HW1 1247   1.028   0.839   0.886 -0.0808  0.0311 -2.0110
  416SOL    HW2 1248   1.116   0.752   0.798  0.5246 -2.4799  0.8956
  417SOL     OW 1249   1.191   0.996   2.564 -0.3537 -0.5771 -0.6636
  417SOL    HW1 1250   1.237   0.927   2.516 -0.0343 -2.6698  2.3817
  417SOL    HW2 1251   1.262   1.052   2.598 -0.6146  1.5055 -3.2353
  418SOL     OW 1252   3.340   0.190   3.145  0.3086 -0.5302 -0.4038
  418SOL    HW1 1253   3.299   0.142   3.218  1.1307  1.6559  1.6115
  418SOL    HW2 1254   3.285   0.168   3.069 -2.4541 -0.5714  1.4390
  419SOL     OW 1255   2.464   1.198   0.086  0.0311  0.1327 -0.3832
  419SOL    HW1 1256   2.410   1.275   0.065 -1.2539 -0.4716  0.5696
  419SOL    HW2 1257   2.405   1.124   0.073  0.9612 -0.6310 -0.3024
  420SOL     OW 1258   0.317   1.315   0.493 -0.1191  0.1476  0.2355
  420SOL    HW1 1259   0.247   1.322   0.428  0.1703 -1.4137 -0.2962
  420SOL    HW2 1260   0.397   1.335   0.444  0.1022 -1.0429  0.0784
  421SOL     OW 1261   1.850   1.568   2.641 -0.2014 -0.2216 -0.0849
  421SOL    HW1 1262   1.833   1.474   2.632 -2.3574  0.0389  0.6475
  421SOL    HW2 1263   1.767   1.605   2.671  1.4953  1.4505  3.1321
  422SOL     OW 1264   2.136   2.853   1.335 -0.1829  0.8059  0.6849
  422SOL    HW1 1265   2.201   2.902   1.386 -0.1853  0.3283  1.1530
  422SOL    HW2 1266   2.152   2.880   1.244  2.1506 -0.9217  0.4885
  423SOL     OW 1267   3.889   3.261   3.775  0.2575 -0.0457  0.6660
  423SOL    HW1 1268   3.843   3.183   3.806  1.1412 -1.6875 -1.8064
  423SOL    HW2 1269   3.954   3.279   3.842 -0.7683 -0.6910  1.8679
  424SOL     OW 1270   0.511   0.741   1.154 -0.4419  0.4259 -0.0637
  424SOL    HW1 1271   0.441   0.780   1.207  0.2891 -0.3806  1.5863
  424SOL    HW2 1272   0.583   0.804   1.158  0.0376 -0.1617  0.9455
  425SOL     OW 1273   3.237   1.114   2.121  0.1632 -0.5121  0.1672
  425SOL    HW1 1274   3.227   1.179   2.191  0.6636 -1.1971  0.8832
  425SOL    HW2 1275   3.330   1.095   2.118  0.1804 -0.3264 -0.8515
  426SOL     OW 1276   2.146   3.451   1.956 -0.2049 -0.0899 -0.5029
  426SOL    HW1 1277   2.199   3.463   2.035 -0.6858  0.9262 -0.3108
  426SOL    HW2 1278   2.144   3.357   1.942  3.3620 -0.1546 -1.6838
  427SOL     OW 1279   1.244   3.783   3.590 -0.4892  0.0990 -0.0414
  427SOL    HW1 1280   1.165   3.790   3.644  0.2259  2.3869  0.8084
  427SOL    HW2 1281   1.271   3.873   3.575  0.8581 -0.5731 -2.0319
  428SOL     OW 1282   0.919   1.360   2.278 -0.3776 -0.0347 -0.4840
  428SOL    HW1 1283   0.894   1.370   2.370  0.9847  0.9721 -0.1811
  428SOL    HW2 1284   0.849   1.402   2.229 -0.3618  0.8105  0.1934
  429SOL     OW 1285   1.911   3.362   1.802 -0.6226  0.0409  0.0485
  429SOL    HW1 1286   1.853   3.337   1.874 -1.3958 -0.7447 -0.8168
  429SOL    HW2 1287   1.987   3.401   1.845 -1.8559  1.2990  1.2243
  430SOL     OW 1288   2.423   0.592   0.975 -0.8672 -0.0972  0.1356
  430SOL    HW1 1289   2.504   0.614   1.023 -0.7299  0.5133 -0.3668
  430SOL    HW2 1290   2.360   0.657   1.004 -0.3722  1.2118 -1.5921
  431SOL     OW 1291   3.022   1.770   3.544 -0.4178 -0.2268  0.1690
  431SOL    HW1 1292   2.962   1.742   3.475  0.0668 -0.4724 -0.1566
  431SOL    HW2 1293   2.976   1.749   3.626 -1.3122  0.7509 -0.0649
  432SOL     OW 1294   3.544   3.914   0.330 -0.3775 -0.2175  0.1084
  432SOL    HW1 1295   3.510   3.943   0.414 -0.2409 -0.5304  0.2722
  432SOL    HW2 1296   3.524   3.987   0.270 -0.0270  0.2197  0.5157
  433SOL     OW 1297   3.880   3.714   3.043 -0.6021  0.9730 -0.2472
  433SOL    HW1 1298   3.954   3.749   2.994  0.4403 -1.6778 -0.7387
  433SOL    HW2 1299   3.804   3.735   2.989  0.5268 -2.1396 -3.4141
  434SOL     OW 1300   3.672   3.792   1.155 -0.2113 -0.0767 -0.3336
  434SOL    HW1 1301   3.731   3.768   1.228  1.4799  2.5951 -0.6687
  434SOL    HW2 1302   3.699   3.735   1.083 -0.0823 -0.9257  0.3673
  435SOL     OW 1303   0.306   2.910   3.176 -0.4296  0.8025  0.4965
  435SOL    HW1 1304   0.362   2.972   3.223  0.7254 -0.6563  1.1206
  435SOL    HW2 1305   0.364   2.837   3.154 -1.4601  0.4904 -1.3331
  436SOL     OW 1306   2.234   3.796   2.605  0.6192 -0.4161  0.3423
  436SOL    HW1 1307   2.268   3.765   2.521 -0.9300  0.0723 -0.4941
  436SOL    HW2 1308   2.248   3.722   2.664  2.1413 -0.6065 -0.2061
  437SOL     OW 1309   0.141   0.616   3.365 -0.2624 -0.4808 -0.1509
  437SOL    HW1 1310   0.106   0.552   3.428 -1.5864  0.3584  0.0024
  437SOL    HW2 1311   0.172   0.688   3.419 -0.4718 -0.1976 -0.4059
  438SOL     OW 1312   3.515   3.626   0.860  0.0365  1.0661  0.0162
  438SOL    HW1 1313   3.516   3.532   0.874 -0.2176  1.2952  1.8891
  438SOL    HW2 1314   3.605   3.648   0.834 -0.2596  0.1651 -1.9344
  439SOL     OW 1315   1.447   2.622   3.450 -0.4016 -0.4406  0.2374
  439SOL    HW1 1316   1.525   2.663   3.487  0.6872 -1.8692 -0.4006
  439SOL    HW2 1317   1.472   2.599   3.360 -1.3874 -1.3912  0.1911
  440SOL     OW 1318   1.830   3.544   0.954  0.3513 -0.0437 -0.3209
  440SOL    HW1 1319   1.864   3.632   0.970 -0.2643 -0.1561  1.9796
  440SOL    HW2 1320   1.834   3.534   0.859  0.8071  2.3071 -0.6193
  441SOL     OW 1321   2.254   0.751   0.776  0.2417 -0.0270  0.6266
  441SOL    HW1 1322   2.341   0.781   0.753  0.9089 -2.9340 -1.2165
  441SOL    HW2 1323   2.207   0.746   0.692 -0.4824 -1.8678  1.0932
  442SOL     OW 1324   1.909   1.602   0.083  0.2631  0.9621 -0.3072
  442SOL    HW1 1325   1.961   1.583   0.161 -0.1438  1.6606  0.1452
  442SOL    HW2 1326   1.823   1.564   0.102  0.6880 -0.5286 -1.2107
  443SOL     OW 1327   0.407   1.360   2.168 -0.1524 -0.3077 -0.3663
  443SOL    HW1 1328   0.358   1.430   2.211 -1.0125 -1.9798  1.5504
  443SOL    HW2 1329   0.353   1.282   2.181  0.9106 -1.4166 -2.1658
  444SOL     OW 1330   1.431   2.745   2.582 -0.4199  0.0491 -0.5791
  444SOL    HW1 1331   1.514   2.700   2.562 -1.2305 -1.1159 -1.4480
  444SOL    HW2 1332   1.451   2.838   2.570  1.5452  0.0910  2.1006
  445SOL     OW 1333   0.347   0.134   1.501  0.2566 -0.1253 -0.4432
  445SOL    HW1 1334   0.420   0.092   1.456  0.6929 -1.4495  1.3536
  445SOL    HW2 1335   0.269   0.104   1.454  0.7315 -0.7979 -0.8280
  446SOL     OW 1336   2.630   0.095   1.492  0.0685 -0.3138 -0.4225
  446SOL    HW1 1337   2.594   0.175   1.453 -0.6462 -0.3958  0.0732
  446SOL    HW2 1338   2.655   0.120   1.581 -0.8095 -0.8137 -0.0271
  447SOL     OW 1339   2.707   1.662   1.610 -0.1376 -0.3613  0.0755
  447SOL    HW1 1340   2.623   1.705   1.622  0.2460  0.9472 -1.6071
  447SOL    HW2 1341   2.744   1.655   1.698 -1.8817 -0.7849  0.8178
  448SOL     OW 1342   0.345   2.884   0.121  0.0705  0.3249  0.1705
  448SOL    HW1 1343   0.440   2.892   0.114  0.1160 -0.4076 -0.1836
  448SOL    HW2 1344   0.330   2.842   0.205 -0.0041  1.3869  0.6983
  449SOL     OW 1345   2.493   3.740   1.137 -0.6533 -0.5161  0.0936
  449SOL    HW1 1346   2.525   3.812   1.084  0.5472 -0.6495  0.5993
  449SOL    HW2 1347   2.402   3.762   1.157  0.3811  2.2317  2.4750
  450SOL     OW 1348   0.800   3.593   3.635  0.1530 -0.2688 -0.5053
  450SOL    HW1 1349   0.767   3.545   3.710  0.7331 -2.1675 -1.3895
  450SOL    HW2 1350   0.789   3.533   3.561 -0.5917  1.5977 -2.0009
  451SOL     OW 1351   3.698   1.290   1.982  0.9308  0.3890 -0.2476
  451SOL    HW1 1352   3.638   1.256   1.916  1.4952  1.1964 -1.1946
  451SOL    HW2 1353   3.772   1.229   1.982  0.4192 -0.2525  0.4737
  452SOL     OW 1354   3.205   0.401   0.364 -0.7054  0.7595  0.7383
  452SOL    HW1 1355   3.129   0.394   0.422 -1.9518  1.1288 -0.7540
  452SOL    HW2 1356   3.219   0.496   0.356  0.0569  0.6853  1.1671
  453SOL     OW 1357   0.251   3.270   2.639 -0.2849 -0.3246  0.3966
  453SOL    HW1 1358   0.316   3.252   2.571 -0.5549 -1.3738  0.4003
  453SOL    HW2 1359   0.167   3.274   2.593 -0.2887  0.5451  0.4592
  454SOL     OW 1360   2.667   2.971   1.325 -0.4598  0.0579 -0.1070
  454SOL    HW1 1361   2.658   2.925   1.408  1.2183 -1.2578 -0.5933
  454SOL    HW2 1362   2.661   3.064   1.348  0.7506 -0.2419  1.6232
  455SOL     OW 1363   0.698   0.688   0.234 -0.2944 -0.4630  0.7545
  455SOL    HW1 1364   0.608   0.656   0.225 -0.6658  0.4630  1.0923
  455SOL    HW2 1365   0.752   0.616   0.200 -1.2166 -0.5150 -0.6740
  456SOL     OW 1366   1.166   2.477   1.248 -0.8456 -0.8562 -0.1995
  456SOL    HW1 1367   1.131   2.516   1.328  0.0115 -1.8127  0.6530
  456SOL    HW2 1368   1.207   2.550   1.202 -2.3353 -0.0713 -0.3486
  457SOL     OW 1369   3.111   1.988   0.687 -0.0803 -0.1674 -0.0735
  457SOL    HW1 1370   3.084   2.010   0.776 -0.5709  0.5007 -0.3771
  457SOL    HW2 1371   3.050   2.035   0.631 -0.4654 -1.4534 -0.7712
  458SOL     OW 1372   0.054   1.203   0.949 -0.5156  0.4036 -0.4774
  458SOL    HW1 1373   0.010   1.125   0.913 -1.2299  0.6472 -0.1583
  458SOL    HW2 1374  -0.012   1.272   0.942  0.3152  1.1386 -1.3284
  459SOL     OW 1375  -0.009   0.742   2.071 -0.0687  0.2102  0.1328
  459SOL    HW1 1376   0.012   0.829   2.106 -0.7407  0.7047 -0.6495
  459SOL    HW2 1377   0.007   0.750   1.977 -2.4998  0.2828 -0.3577
  460SOL     OW 1378   3.626   1.505   3.926  0.1282  0.1490  0.3560
  460SOL    HW1 1379   3.710   1.496   3.881  0.4650 -0.9422  1.1805
  460SOL    HW2 1380   3.577   1.427   3.901  1.4059 -2.0633  4.0687
  461SOL     OW 1381   1.024   2.592   2.415 -0.6099  0.7931  0.7848
  461SOL    HW1 1382   1.011   2.521   2.351 -0.1956  1.6696 -0.3006
  461SOL    HW2 1383   1.119   2.603   2.421 -0.6518  0.8556  1.4090
  462SOL     OW 1384   2.198   3.367   2.570  0.5836 -0.0946  0.5956
  462SOL    HW1 1385   2.288   3.344   2.547  0.3681 -0.1793 -0.1936
  462SOL    HW2 1386   2.148   3.286   2.559  0.4880 -0.1779  1.5261
  463SOL     OW 1387   1.965   3.709   0.656 -0.2146 -0.2072 -0.1955
  463SOL    HW1 1388   2.031   3.746   0.598 -1.6250 -0.0052 -1.7301
  463SOL    HW2 1389   1.949   3.621   0.622 -0.5786 -0.3302  0.2804
  464SOL     OW 1390   1.625   3.539   3.434 -0.3248  0.6513  0.6750
  464SOL    HW1 1391   1.542   3.521   3.390 -2.1567 -0.0011  4.0762
  464SOL    HW2 1392   1.664   3.452   3.448  1.7399  1.0033 -2.0351
  465SOL     OW 1393   2.061   0.320   0.846 -0.5126  0.4519 -0.1107
  465SOL    HW1 1394   2.119   0.361   0.781 -1.7741  0.5067 -1.2517
  465SOL    HW2 1395   1.984   0.377   0.848 -1.7925 -1.1846 -0.8428
  466SOL     OW 1396   1.793   3.680   2.338  0.0890  0.0868  0.0364
  466SOL    HW1 1397   1.881   3.717   2.348 -0.8298  2.7789 -0.7611
  466SOL    HW2 1398   1.788   3.656   2.246  0.4039 -1.3334  0.3759
  467SOL     OW 1399   3.427   1.014   0.352  0.2035 -0.0739 -0.0346
  467SOL    HW1 1400   3.483   1.084   0.387  1.1845 -1.3459  1.0404
  467SOL    HW2 1401   3.385   0.977   0.429 -0.8701 -0.2165 -0.6761
  468SOL     OW 1402   0.114   1.663   1.693  0.1392 -0.1639 -0.0319
  468SOL    HW1 1403   0.128   1.717   1.770 -1.5517 -0.9897  0.9092
  468SOL    HW2 1404   0.114   1.725   1.620  0.4965  0.8041  0.7708
  469SOL     OW 1405   1.399   2.641   4.006  0.9399  0.0136  0.1215
  469SOL    HW1 1406   1.407   2.638   3.911  3.0150 -0.0002  0.2362
  469SOL    HW2 1407   1.310   2.671   4.022  0.4380 -0.3110 -1.8127
  470SOL     OW 1408   2.887   1.378   3.903  0.0051  0.0398 -0.4972
  470SOL    HW1 1409   2.902   1.445   3.836  0.5818  2.0974  1.5539
  470SOL    HW2 1410   2.975   1.352   3.931 -0.1710  0.9457  1.0257
  471SOL     OW 1411   0.257   1.592   2.279 -0.2385  0.1240 -0.0207
  471SOL    HW1 1412   0.265   1.639   2.362  1.4096  0.9322 -0.5844
  471SOL    HW2 1413   0.307   1.645   2.217 -0.7160 -0.9113 -1.3318
  472SOL     OW 1414   3.487   0.474   0.666  0.0111  0.7762  0.1316
  472SOL    HW1 1415   3.467   0.545   0.605  1.7462  1.3103  0.1164
  472SOL    HW2 1416   3.571   0.499   0.705 -0.5720 -0.0333  2.0294
  473SOL     OW 1417   2.048   1.989   0.293  0.0349  0.1109  0.5586
  473SOL    HW1 1418   2.025   2.067   0.344  0.4858  0.4937  0.1825
  473SOL    HW2 1419   2.079   2.024   0.210 -0.6186 -0.5071  0.0460
  474SOL     OW 1420   1.171   2.025   0.322 -0.1078 -0.0130 -0.3816
  474SOL    HW1 1421   1.208   1.972   0.252  0.8625  0.5943 -0.3546
  474SOL    HW2 1422   1.138   1.961   0.386 -0.4575 -0.5626 -1.1069
  475SOL     OW 1423   2.821   1.886   1.207 -0.3237 -0.9778 -0.1938
  475SOL    HW1 1424   2.738   1.933   1.212 -1.0969 -2.3103  0.0490
  475SOL    HW2 1425   2.808   1.824   1.135  0.7568 -0.6848 -0.6631
  476SOL     OW 1426   3.185   0.243   2.456  0.3266  0.1594 -0.1314
  476SOL    HW1 1427   3.099   0.224   2.418  0.6604 -0.9513 -0.3726
  476SOL    HW2 1428   3.246   0.234   2.384  1.1520 -3.4272  0.8008
  477SOL     OW 1429   1.825   2.685   3.910 -0.1274 -0.2729  0.6146
  477SOL    HW1 1430   1.839   2.676   4.004 -2.4811  0.2351  1.0956
  477SOL    HW2 1431   1.741   2.641   3.894  0.8757 -1.5893 -1.5358
  478SOL     OW 1432   1.575   3.940   0.362  0.2511 -0.3245  0.0691
  478SOL    HW1 1433   1.588   3.980   0.448  0.9816 -0.1212 -0.1305
  478SOL    HW2 1434   1.658   3.954   0.316  1.1294 -3.3647  0.5236
  479SOL     OW 1435   2.735   1.072   1.301  0.5376 -0.2674  0.3579
  479SOL    HW1 1436   2.802   1.033   1.245  0.4130  0.7946 -0.5754
  479SOL    HW2 1437   2.784   1.126   1.363  0.5346  1.4750 -1.0928
  480SOL     OW 1438   3.650   3.267   2.341 -0.5747  0.1842  0.1308
  480SOL    HW1 1439   3.725   3.316   2.374 -0.6841 -1.1039  2.5980
  480SOL    HW2 1440   3.585   3.333   2.319  0.6530  1.2464 -0.4366
  481SOL     OW 1441   2.837   1.486   0.855 -0.4636 -0.3453 -0.1471
  481SOL    HW1 1442   2.893   1.522   0.924  0.2833  0.6242 -1.2270
  481SOL    HW2 1443   2.869   1.396   0.844  1.0536  0.2505 -0.8829
  482SOL     OW 1444   1.967   3.649   1.929  0.3232 -0.1990  0.0734
  482SOL    HW1 1445   1.979   3.702   2.008 -0.5545  1.3017 -0.7398
  482SOL    HW2 1446   2.044   3.592   1.926  1.5269  1.3117  0.8151
  483SOL     OW 1447   0.360   3.884   0.091  0.3957  0.2829  0.4082
  483SOL    HW1 1448   0.350   3.959   0.150  0.3076 -0.1914  1.0003
  483SOL    HW2 1449   0.430   3.832   0.130 -0.3071 -0.5244  0.6276
  484SOL     OW 1450   1.519   2.524   1.192 -0.0953  0.0504  0.2397
  484SOL    HW1 1451   1.479   2.610   1.207  0.8459  1.0383 -2.3561
  484SOL    HW2 1452   1.453   2.475   1.142  0.6232  0.5514 -1.2695
  485SOL     OW 1453   0.617   0.484   2.454  0.0961  0.1203 -0.3570
  485SOL    HW1 1454   0.560   0.484   2.377 -1.2285 -1.3753  0.5429
  485SOL    HW2 1455   0.594   0.403   2.500  2.0416  0.1360  0.7533
  486SOL     OW 1456   0.301   2.448   1.569  0.2009  0.0983  0.2822
  486SOL    HW1 1457   0.277   2.365   1.528 -0.6093  0.6482 -0.3907
  486SOL    HW2 1458   0.359   2.491   1.505 -1.4179  1.1549 -0.5568
  487SOL     OW 1459   2.005   2.864   0.554  0.1833  0.2817  0.6326
  487SOL    HW1 1460   1.991   2.927   0.624 -0.4903 -0.6115  1.3144
  487SOL    HW2 1461   2.095   2.835   0.565  0.0390  0.0469  1.2110
  488SOL     OW 1462   0.379   1.754   3.818 -0.3508 -0.0483 -0.0601
  488SOL    HW1 1463   0.326   1.831   3.796 -1.4463 -0.2990  1.5291
  488SOL    HW2 1464   0.352   1.688   3.754 -1.1168  0.1883  0.0009
  489SOL     OW 1465   0.996   3.876   2.390 -0.5698  0.2802 -0.2961
  489SOL    HW1 1466   0.945   3.821   2.331 -0.1951  0.2018 -0.5507
  489SOL    HW2 1467   1.087   3.856   2.369 -0.4097  1.5588 -0.9253
  490SOL     OW 1468   3.390   2.062   1.727 -0.4048 -0.4110 -0.3116
  490SOL    HW1 1469   3.412   2.091   1.815 -2.9417 -0.6458  0.4600
  490SOL    HW2 1470   3.426   2.131   1.670 -1.6911  1.5779  1.1527
  491SOL     OW 1471   1.761   3.398   3.884 -0.2224 -0.3780 -0.5772
  491SOL    HW1 1472   1.755   3.432   3.974  1.3148 -2.4967  0.4314
  491SOL    HW2 1473   1.675   3.414   3.846 -0.9501  0.5139  1.3161
  492SOL     OW 1474   0.849   3.652   0.614 -0.3637 -0.0645  0.4965
  492SOL    HW1 1475   0.760   3.687   0.615 -0.2890  0.1189  0.6799
  492SOL    HW2 1476   0.906   3.728   0.624 -0.1927 -0.2111  0.6591
  493SOL     OW 1477   1.044   1.886   2.521 -0.3612  0.4675  0.0434
  493SOL    HW1 1478   1.006   1.942   2.588  0.2515 -0.6125  1.3663
  493SOL    HW2 1479   0.978   1.819   2.505 -0.5062  0.7248 -0.4329
  494SOL     OW 1480   0.558   2.033   0.265 -0.3251  0.1187 -0.2686
  494SOL    HW1 1481   0.632   1.980   0.235  0.8074  0.4134  1.7998
  494SOL    HW2 1482   0.506   2.049   0.186  3.3240  2.3645 -2.5118
  495SOL     OW 1483   2.016   1.146   1.867 -0.0139  0.3245  0.4288
  495SOL    HW1 1484   2.086   1.094   1.905 -0.0979  0.3479  0.6187
  495SOL    HW2 1485   1.937   1.092   1.877 -0.4128  1.1590  2.1532
  496SOL     OW 1486   2.393   0.721   3.447  0.4540 -0.1642 -0.0062
  496SOL    HW1 1487   2.381   0.812   3.419 -1.9493  0.5013  2.6778
  496SOL    HW2 1488   2.478   0.720   3.490 -0.0259  1.2090  1.0612
  497SOL     OW 1489   3.121   0.220   1.703 -0.0846  0.3890  0.5343
  497SOL    HW1 1490   3.101   0.268   1.783 -0.4279  1.2850 -0.0742
  497SOL    HW2 1491   3.201   0.261   1.669  0.3112 -0.2746  0.6395
  498SOL     OW 1492   1.771   3.469   0.643  0.0526  0.0463  0.4408
  498SOL    HW1 1493   1.709   3.524   0.595 -2.1120 -0.8259  2.0784
  498SOL    HW2 1494   1.780   3.391   0.588 -0.9539 -0.1485  0.5233
  499SOL     OW 1495   2.065   3.147   2.463 -0.7077  0.3562 -0.3110
  499SOL    HW1 1496   2.082   3.059   2.497 -0.1263  0.0035 -1.4659
  499SOL    HW2 1497   1.989   3.136   2.406  0.3364  0.2553 -1.7286
  500SOL     OW 1498   3.246   0.088   2.936 -0.4996 -0.4143 -0.0726
  500SOL    HW1 1499   3.255   0.125   2.848  0.8478 -0.0478  0.2067
  500SOL    HW2 1500   3.152   0.074   2.946 -0.7515  0.3095 -1.2559
  501SOL     OW 1501   1.832   2.337   3.931 -0.2918 -0.1894  0.8823
  501SOL    HW1 1502   1.850   2.333   4.025 -0.1101  1.5912  0.9499
  501SOL    HW2 1503   1.918   2.350   3.891 -0.5671  0.9876  0.6368
  502SOL     OW 1504   0.310   3.602   2.305  0.6649  0.2649 -0.6009
  502SOL    HW1 1505   0.249   3.626   2.375 -0.7180 -0.2428 -1.5990
  502SOL    HW2 1506   0.393   3.642   2.331 -0.0384  0.8241  0.8807
  503SOL     OW 1507   0.386   3.429   2.092  0.2254 -0.3887 -0.4041
  503SOL    HW1 1508   0.384   3.342   2.132 -0.8020 -0.6309 -0.9600
  503SOL    HW2 1509   0.358   3.488   2.162 -0.5604 -0.6905 -0.4539
  504SOL     OW 1510   1.021   3.041   0.711  0.2939 -0.1774 -0.2498
  504SOL    HW1 1511   0.985   3.029   0.799 -0.0281 -0.5562 -0.4335
  504SOL    HW2 1512   1.022   2.954   0.673 -0.1904  0.0782 -0.8619
  505SOL     OW 1513   1.357   0.789   1.314  0.2295  0.4380  0.5421
  505SOL    HW1 1514   1.345   0.882   1.300  1.5978  0.7405  1.2276
  505SOL    HW2 1515   1.268   0.755   1.329 -0.4065  1.4029 -0.8319
  506SOL     OW 1516   3.478   1.132   2.426 -0.3509 -0.3610 -0.1193
  506SOL    HW1 1517   3.413   1.203   2.431  0.4086  0.3997 -0.7235
  506SOL    HW2 1518   3.561   1.175   2.445  0.0277 -1.2471  0.2458
  507SOL     OW 1519   0.457   1.931   1.846  0.1126  0.1263  0.1674
  507SOL    HW1 1520   0.468   1.958   1.755 -0.2984 -0.7055 -0.1397
  507SOL    HW2 1521   0.461   2.013   1.896  0.7106  0.5505 -0.5562
  508SOL     OW 1522   3.019   0.402   2.216 -0.2713 -0.7281 -0.1855
  508SOL    HW1 1523   3.015   0.358   2.301 -2.2058 -1.8760 -0.7824
  508SOL    HW2 1524   3.043   0.492   2.236  0.5797 -1.2773  1.4292
  509SOL     OW 1525   3.190   0.563   3.919 -0.2262  0.1761 -0.0037
  509SOL    HW1 1526   3.264   0.539   3.974 -0.9213  0.1858  0.9644
  509SOL    HW2 1527   3.207   0.654   3.895 -0.3670  0.4723  0.9734
  510SOL     OW 1528   2.440   0.149   1.039 -0.4024  0.2062 -0.0049
  510SOL    HW1 1529   2.506   0.217   1.054 -0.1453  0.0068 -0.2205
  510SOL    HW2 1530   2.357   0.196   1.032 -0.2130  0.5046 -0.2431
  511SOL     OW 1531   0.466   0.980   3.450  0.2333 -0.1973  0.0932
  511SOL    HW1 1532   0.525   0.987   3.525 -0.1487  2.5674  0.2240
  511SOL    HW2 1533   0.516   1.018   3.377 -0.3679 -0.4396 -0.4516
  512SOL     OW 1534   1.784   2.131   3.701 -0.5020  0.2055  0.2915
  512SOL    HW1 1535   1.695   2.108   3.675  0.2070  0.0210 -2.1963
  512SOL    HW2 1536   1.801   2.076   3.778 -2.5849  0.4550  1.0113
  513SOL     OW 1537   2.372   2.976   3.954 -0.4073 -0.2298  0.0865
  513SOL    HW1 1538   2.315   2.933   4.018  0.6555 -2.5735 -0.4423
  513SOL    HW2 1539   2.451   2.922   3.952  0.0659  0.4488 -2.3589
  514SOL     OW 1540   3.312   2.802   0.420 -0.3447  0.3941  0.3431
  514SOL    HW1 1541   3.331   2.708   0.428  1.3460  0.5744 -1.0183
  514SOL    HW2 1542   3.317   2.819   0.326 -0.9057  1.8233  0.5501
  515SOL     OW 1543   0.440   1.673   1.086  0.5242  0.0238 -0.0529
  515SOL    HW1 1544   0.535   1.674   1.089  0.4924  0.4636  1.2821
  515SOL    HW2 1545   0.419   1.664   0.993  1.8627 -1.4507 -0.2610
  516SOL     OW 1546   2.896   0.939   1.137 -0.2840  0.4828  0.8447
  516SOL    HW1 1547   2.971   0.879   1.136 -1.4313 -1.0236  1.5563
  516SOL    HW2 1548   2.890   0.971   1.047 -0.2673 -1.3292  0.1477
  517SOL     OW 1549   0.520   1.513   1.445  0.2890 -0.3595  0.5704
  517SOL    HW1 1550   0.575   1.574   1.493  0.4793  0.7104 -0.9192
  517SOL    HW2 1551   0.431   1.531   1.476  0.2651  1.1372 -0.2612
  518SOL     OW 1552   3.576   1.174   3.707  1.0453 -0.2466 -0.4848
  518SOL    HW1 1553   3.662   1.153   3.672  0.3430  0.2841 -2.6521
  518SOL    HW2 1554   3.517   1.107   3.672  0.6709 -1.1922  1.7559
  519SOL     OW 1555   2.676   3.597   1.976  0.6981  0.3614 -0.0493
  519SOL    HW1 1556   2.712   3.543   1.905 -2.2314 -0.9182 -0.7167
  519SOL    HW2 1557   2.629   3.667   1.931  0.7265  0.8829  0.7229
  520SOL     OW 1558   1.595   1.822   3.912 -0.1502  0.7057  0.4582
  520SOL    HW1 1559   1.647   1.902   3.918 -0.8037  1.2040 -0.3077
  520SOL    HW2 1560   1.657   1.755   3.884  0.1227  1.2677 -0.3366
  521SOL     OW 1561   3.935   2.394   3.785  0.6956 -0.1631 -0.4782
  521SOL    HW1 1562   3.943   2.488   3.773  1.7092 -0.1578  0.1222
  521SOL    HW2 1563   3.848   2.381   3.823  0.6566  0.5562 -0.3168
  522SOL     OW 1564   1.925   1.336   2.186 -0.0035  0.1177 -0.9017
  522SOL    HW1 1565   1.996   1.293   2.139 -0.8130 -0.0366 -2.0062
  522SOL    HW2 1566   1.861   1.359   2.119 -1.4510 -0.5945  0.1769
  523SOL     OW 1567   2.614   2.182   3.556  0.4235 -0.1166 -0.2884
  523SOL    HW1 1568   2.552   2.122   3.515 -0.1091 -0.7693  1.3951
  523SOL    HW2 1569   2.649   2.133   3.631  0.0824  1.5712  1.0498
  524SOL     OW 1570   3.407   2.231   1.206 -0.0371 -0.2666  0.2998
  524SOL    HW1 1571   3.317   2.262   1.194 -0.5652 -2.0772 -0.6454
  524SOL    HW2 1572   3.450   2.252   1.123  0.4610  0.6538  0.7737
  525SOL     OW 1573   2.378   2.860   1.573  0.5316 -0.0400  0.2246
  525SOL    HW1 1574   2.406   2.799   1.505  1.7235  1.9868 -1.1905
  525SOL    HW2 1575   2.442   2.850   1.642  0.5291 -0.6090  0.1522
  526SOL     OW 1576   2.570   2.457   1.812 -0.0600 -0.3152  0.0499
  526SOL    HW1 1577   2.555   2.363   1.823 -1.1012 -0.3912 -1.6143
  526SOL    HW2 1578   2.528   2.497   1.888 -1.1729 -1.1131 -0.1147
  527SOL     OW 1579   0.362   2.964   2.056  0.1640 -0.6758  0.0444
  527SOL    HW1 1580   0.330   2.923   1.976  2.9025 -2.0400 -0.4583
  527SOL    HW2 1581   0.375   2.891   2.117 -4.4891  0.5098  2.9777
  528SOL     OW 1582   3.515   2.269   1.929 -0.1933  0.0904 -0.4662
  528SOL    HW1 1583   3.537   2.335   1.863 -3.4208 -0.6681 -2.4933
  528SOL    HW2 1584   3.500   2.319   2.009 -0.6417  1.5938 -1.4454
  529SOL     OW 1585   1.610   2.133   1.007  0.0525  1.1728  0.6036
  529SOL    HW1 1586   1.699   2.169   1.005  0.2417  0.6986 -0.7585
  529SOL    HW2 1587   1.582   2.133   0.915 -0.8033  0.0025  0.8362
  530SOL     OW 1588   0.716   0.934   1.110 -0.3025 -0.4943  0.0859
  530SOL    HW1 1589   0.699   0.943   1.204  1.2530  0.1304  0.3334
  530SOL    HW2 1590   0.708   1.022   1.075 -0.2137 -0.6167 -0.2469
  531SOL     OW 1591   0.808   3.457   1.339  0.0116 -0.0103 -0.5430
  531SOL    HW1 1592   0.785   3.392   1.405 -0.5193  0.4884 -0.2279
  531SOL    HW2 1593   0.876   3.415   1.287  0.8008 -0.2362  0.6242
  532SOL     OW 1594   2.682   1.880   2.857 -0.1218  0.4275  0.3177
  532SOL    HW1 1595   2.684   1.800   2.910 -1.2792 -0.4518 -0.9160
  532SOL    HW2 1596   2.590   1.907   2.859 -0.2647  0.1682 -1.5063
  533SOL     OW 1597   1.595   2.874   1.056  0.5821 -0.4597 -0.3629
  533SOL    HW1 1598   1.517   2.925   1.033 -0.1704 -0.4978  1.7902
  533SOL    HW2 1599   1.570   2.783   1.037  0.0418 -0.4762  0.3631
  534SOL     OW 1600   2.883   1.813   0.487  0.1207  0.0124 -0.2367
  534SOL    HW1 1601   2.886   1.721   0.512  0.5844 -0.2141 -1.0958
  534SOL    HW2 1602   2.882   1.812   0.391  0.2940  0.9040 -0.2575
  535SOL     OW 1603   3.924   3.428   3.084 -0.2662 -0.2043 -0.3959
  535SOL    HW1 1604   3.916   3.381   3.001 -0.8458  1.6545 -1.4454
  535SOL    HW2 1605   3.885   3.514   3.067  2.0635  1.2382  0.9508
  536SOL     OW 1606   3.262   1.279   2.857  0.6816 -0.0153  0.5412
  536SOL    HW1 1607   3.324   1.212   2.829  0.4810  0.9304 -2.6549
  536SOL    HW2 1608   3.313   1.360   2.858 -0.1533  0.5862 -1.0074
  537SOL     OW 1609   0.501   1.788   2.616 -0.1295 -0.0909 -0.1864
  537SOL    HW1 1610   0.443   1.779   2.692  2.1122  1.3947  1.8459
  537SOL    HW2 1611   0.467   1.863   2.568 -0.6000 -0.0044  0.2725
  538SOL     OW 1612   3.246   1.143   1.498  0.7156 -0.1245 -0.1829
  538SOL    HW1 1613   3.213   1.211   1.439  2.2882 -0.4991 -1.5376
  538SOL    HW2 1614   3.211   1.168   1.584  1.2608  2.4299 -0.6212
  539SOL     OW 1615   0.743   2.409   1.013 -0.0686  0.0067 -0.2372
  539SOL    HW1 1616   0.767   2.347   0.943  1.6196  0.3445 -0.0095
  539SOL    HW2 1617   0.817   2.469   1.017  0.0598 -0.2225  2.0869
  540SOL     OW 1618   3.719   0.659   1.821 -0.5296 -0.1704  0.4780
  540SOL    HW1 1619   3.750   0.652   1.911 -2.4164  1.0017  1.2797
  540SOL    HW2 1620   3.708   0.753   1.806 -1.7961 -0.4215 -0.3917
  541SOL     OW 1621   2.571   0.065   1.918 -0.6864 -0.5706 -0.5818
  541SOL    HW1 1622   2.627   0.115   1.859 -1.7146 -0.1129 -1.1917
  541SOL    HW2 1623   2.629   0.041   1.991  0.1157  0.5050 -0.8375
  542SOL     OW 1624   1.282   3.648   2.691 -0.0841 -0.3237 -0.5090
  542SOL    HW1 1625   1.372   3.680   2.683  1.2867 -3.5275  0.3840
  542SOL    HW2 1626   1.272   3.587   2.618 -2.1793  1.1576 -1.5423
  543SOL     OW 1627   3.920   1.413   2.471 -0.5606  0.1102  0.6713
  543SOL    HW1 1628   4.015   1.403   2.477 -0.5084  1.0354  1.9412
  543SOL    HW2 1629   3.898   1.384   2.383  0.8437 -0.5267  0.5027
  544SOL     OW 1630   0.774   2.139   2.273  0.2223  0.2624 -0.3773
  544SOL    HW1 1631   0.799   2.191   2.350 -0.0072 -0.3330  0.1006
  544SOL    HW2 1632   0.775   2.049   2.304 -0.0549  0.0360 -1.0296
  545SOL     OW 1633   0.529   2.570   3.557 -0.1442 -0.0933  0.2116
  545SOL    HW1 1634   0.611   2.521   3.567  0.4853  0.4307 -1.8351
  545SOL    HW2 1635   0.503   2.591   3.646  1.0315 -1.7395  1.0101
  546SOL     OW 1636   0.730   2.102   2.962 -0.0632 -0.3987 -0.0899
  546SOL    HW1 1637   0.723   2.145   3.047  1.1322 -0.6254  0.1533
  546SOL    HW2 1638   0.743   2.174   2.900 -0.6857 -0.2495 -0.0535
  547SOL     OW 1639   1.524   3.775   2.694  0.0636 -0.3109 -0.2271
  547SOL    HW1 1640   1.547   3.810   2.608 -0.4833  1.3540  0.2640
  547SOL    HW2 1641   1.606   3.740   2.728  0.7884  1.0361 -0.5326
  548SOL     OW 1642   3.421   1.334   3.843 -0.0718 -0.4005 -0.1131
  548SOL    HW1 1643   3.350   1.381   3.800  0.6479  1.9517  1.0746
  548SOL    HW2 1644   3.461   1.282   3.774  0.1754  2.1342 -2.0275
  549SOL     OW 1645   1.022   3.106   1.510 -0.5681 -0.1682 -0.2807
  549SOL    HW1 1646   1.005   3.017   1.542 -0.9582 -0.0427 -0.1261
  549SOL    HW2 1647   0.993   3.163   1.581 -0.6944  0.0941 -0.5397
  550SOL     OW 1648   2.164   3.640   0.935  0.0353 -0.2435  0.3759
  550SOL    HW1 1649   2.191   3.582   0.864  0.0609 -0.4153  0.5247
  550SOL    HW2 1650   2.214   3.720   0.921  0.9714 -0.7266  0.9173
  551SOL     OW 1651   3.442   0.951   3.498  0.1349  0.8822 -0.4663
  551SOL    HW1 1652   3.436   0.952   3.403 -1.8433 -1.5179 -0.4819
  551SOL    HW2 1653   3.357   0.984   3.528 -0.2675 -0.7827  0.3454
  552SOL     OW 1654   1.665   3.585   1.964 -0.7901  0.1476  0.3792
  552SOL    HW1 1655   1.748   3.625   1.939 -0.8211 -0.0752 -0.0801
  552SOL    HW2 1656   1.687   3.493   1.978 -0.7409  0.2855  1.3259
  553SOL     OW 1657   1.295   0.685   3.022 -0.0437 -0.2885 -0.6572
  553SOL    HW1 1658   1.333   0.690   2.934 -1.4026  0.1010 -1.2482
  553SOL    HW2 1659   1.216   0.632   3.011 -1.7956  2.0827 -0.2833
  554SOL     OW 1660   2.223   0.474   0.666  0.2198  0.4025  0.0439
  554SOL    HW1 1661   2.254   0.546   0.721 -2.5308  0.8971  1.1214
  554SOL    HW2 1662   2.206   0.515   0.581  0.6666  0.5458  0.0221
  555SOL     OW 1663   2.074   2.785   2.988 -0.1609 -0.3549 -1.0786
  555SOL    HW1 1664   2.117   2.714   2.941 -0.6912 -2.6263  1.5611
  555SOL    HW2 1665   2.105   2.775   3.078 -0.8220  2.3861 -0.4602
  556SOL     OW 1666   1.074   2.361   0.127 -0.1997  0.2388  0.1019
  556SOL    HW1 1667   0.980   2.376   0.128 -0.0043  1.7529 -0.8390
  556SOL    HW2 1668   1.084   2.270   0.098 -1.3595  0.1807 -0.1487
  557SOL     OW 1669   0.069   3.803   3.491  0.8133 -0.4047  0.1763
  557SOL    HW1 1670   0.159   3.774   3.499  1.0044  0.2125  0.3593
  557SOL    HW2 1671   0.043   3.827   3.580  0.0623 -1.7078  0.3386
  558SOL     OW 1672   0.717   1.928   3.357 -0.5784  0.1835  0.5491
  558SOL    HW1 1673   0.704   2.008   3.408  0.5987 -0.7979  2.5248
  558SOL    HW2 1674   0.629   1.893   3.344 -0.9540  0.7111  1.5473
  559SOL     OW 1675   3.415   0.311   3.634  0.9852 -0.3814  0.5966
  559SOL    HW1 1676   3.386   0.273   3.717 -1.2697  1.0293  0.5434
  559SOL    HW2 1677   3.433   0.403   3.655 -0.4115  0.2098 -0.5727
  560SOL     OW 1678   0.790   1.917   1.722 -0.3140 -1.3062 -0.0691
  560SOL    HW1 1679   0.746   1.947   1.802 -0.5055 -0.6156 -0.4211
  560SOL    HW2 1680   0.855   1.985   1.704 -1.7941 -0.1982 -1.7481
  561SOL     OW 1681   2.032   2.616   1.209 -0.1234  0.2256 -0.2744
  561SOL    HW1 1682   2.079   2.575   1.137 -0.4143  0.8205 -0.8215
  561SOL    HW2 1683   2.078   2.698   1.225  0.3642 -0.2182  0.7057
  562SOL     OW 1684   1.577   3.240   0.509 -0.2557 -0.2018  1.0923
  562SOL    HW1 1685   1.524   3.233   0.589 -2.4150 -0.2552 -0.2721
  562SOL    HW2 1686   1.612   3.151   0.496 -0.4758 -0.3630  1.5871
  563SOL     OW 1687   3.460   3.676   3.898 -0.2561 -0.5085  0.0795
  563SOL    HW1 1688   3.545   3.642   3.869 -0.0164  1.1454 -1.3820
  563SOL    HW2 1689   3.472   3.771   3.899 -2.0766 -0.2398 -0.1415
  564SOL     OW 1690   2.133   2.908   2.582 -0.1008 -0.4602  0.1883
  564SOL    HW1 1691   2.119   2.827   2.532  0.0391 -0.3866  0.0284
  564SOL    HW2 1692   2.214   2.892   2.630 -0.1914 -0.4992  0.3283
  565SOL     OW 1693   1.382   1.167   3.681  0.3166  0.1785 -0.0307
  565SOL    HW1 1694   1.394   1.106   3.608 -1.7409 -0.3771  0.0117
  565SOL    HW2 1695   1.441   1.239   3.662 -1.2406  0.8116 -3.1721
  566SOL     OW 1696   3.631   3.549   1.470 -0.2806 -0.2436 -0.0693
  566SOL    HW1 1697   3.560   3.580   1.527  0.4174  0.3448  0.5102
  566SOL    HW2 1698   3.591   3.539   1.384 -1.0354  0.2196  0.2197
  567SOL     OW 1699   3.242   3.608   0.069  0.0084 -0.3691  0.0867
  567SOL    HW1 1700   3.263   3.609   0.162  1.5966  0.1078 -0.2484
  567SOL    HW2 1701   3.323   3.637   0.026 -1.0980  0.6780 -1.3659
  568SOL     OW 1702   3.960   0.973   0.857  0.3658  0.1475  0.0775
  568SOL    HW1 1703   3.949   0.931   0.771 -0.4996 -0.5960  0.5388
  568SOL    HW2 1704   3.882   0.947   0.907  0.9326  0.4376  1.1411
  569SOL     OW 1705   2.486   3.885   0.488  0.2577 -0.0758  0.2908
  569SOL    HW1 1706   2.516   3.839   0.566 -3.0309 -1.4900  0.8827
  569SOL    HW2 1707   2.476   3.817   0.421  0.2907  0.6452 -0.4708
  570SOL     OW 1708   0.421   0.230   2.473  0.0416  0.6960 -0.8148
  570SOL    HW1 1709   0.341   0.184   2.498  1.6740 -1.0576  1.6276
  570SOL    HW2 1710   0.390   0.317   2.445 -2.7029 -0.0026 -0.3040
  571SOL     OW 1711   3.352   2.316   3.742 -0.2581  0.1716 -0.2651
  571SOL    HW1 1712   3.432   2.319   3.689  0.9537 -4.5459  0.8193
  571SOL    HW2 1713   3.283   2.292   3.680  0.2953 -1.0088 -0.4537
  572SOL     OW 1714   2.042   2.775   1.590  0.0085  0.0880  0.7617
  572SOL    HW1 1715   2.055   2.863   1.626  1.8772 -0.0103  0.4133
  572SOL    HW2 1716   2.032   2.789   1.496  1.1244 -0.1272  0.6061
  573SOL     OW 1717   1.380   1.099   3.130  0.3672 -0.3119  0.3524
  573SOL    HW1 1718   1.320   1.174   3.130 -1.7561 -1.8463  2.3547
  573SOL    HW2 1719   1.416   1.098   3.219 -0.8735 -2.4924  0.9021
  574SOL     OW 1720   3.780   0.048   1.777  0.3224  0.1488  0.3154
  574SOL    HW1 1721   3.799   0.024   1.868  0.1820 -0.3493  0.2175
  574SOL    HW2 1722   3.772  -0.036   1.731  1.4925  0.3873 -0.3823
  575SOL     OW 1723   2.708   2.529   3.562  0.0314  0.3214  0.2876
  575SOL    HW1 1724   2.723   2.534   3.468 -0.0876 -0.8276  0.1909
  575SOL    HW2 1725   2.642   2.461   3.573 -0.5224  0.9670  1.1620
  576SOL     OW 1726   3.464   3.861   2.332 -0.4047 -0.0926 -0.8764
  576SOL    HW1 1727   3.464   3.908   2.248 -1.2559  2.7464  0.5620
  576SOL    HW2 1728   3.372   3.851   2.354 -0.2771  1.8763  0.9662
  577SOL     OW 1729   0.192   2.260   3.828  0.2261 -0.4739  0.4496
  577SOL    HW1 1730   0.100   2.246   3.808  0.2166 -0.2297  0.3214
  577SOL    HW2 1731   0.199   2.354   3.847  0.3161 -0.6175  1.1632
  578SOL     OW 1732   3.723   2.676   2.648 -0.6193 -0.0207  0.1019
  578SOL    HW1 1733   3.674   2.749   2.686 -0.7083  0.1564 -0.3466
  578SOL    HW2 1734   3.810   2.712   2.633 -0.8378  0.2004 -0.7167
  579SOL     OW 1735   2.686   2.709   1.226  0.0355  0.3325  0.3353
  579SOL    HW1 1736   2.649   2.794   1.202 -1.0812  0.1387  1.2527
  579SOL    HW2 1737   2.772   2.729   1.263  0.4067  0.9089 -0.8044
  580SOL     OW 1738   2.289   3.285   3.341 -0.0566 -0.3298 -0.0316
  580SOL    HW1 1739   2.332   3.360   3.383  1.0437 -0.6621 -0.5257
  580SOL    HW2 1740   2.257   3.232   3.414 -2.3602  1.3988  0.3423
  581SOL     OW 1741   0.806   0.345   0.634  0.5159 -0.0952  0.1213
  581SOL    HW1 1742   0.897   0.369   0.618  0.9408 -2.0797 -0.7551
  581SOL    HW2 1743   0.764   0.427   0.659  2.3651  1.0162 -0.1867
  582SOL     OW 1744   2.516   2.350   3.954 -0.3169  0.4220  0.9767
  582SOL    HW1 1745   2.469   2.289   4.010  0.4936 -0.5071  0.6701
  582SOL    HW2 1746   2.502   2.436   3.994 -0.1608 -0.1601  2.3139
  583SOL     OW 1747   3.859   0.216   2.489  0.0661 -0.3238  0.0606
  583SOL    HW1 1748   3.862   0.199   2.583 -0.0592  1.7784  0.4955
  583SOL    HW2 1749   3.799   0.150   2.454  0.1285 -1.1361  1.4403
  584SOL     OW 1750   1.738   2.912   0.140 -0.3516  0.3250  0.6640
  584SOL    HW1 1751   1.752   2.966   0.062 -0.6489 -2.9234 -1.8737
  584SOL    HW2 1752   1.643   2.904   0.146 -0.2944 -0.4123  0.6160
  585SOL     OW 1753   0.415   2.619   0.038 -0.0952 -0.2059 -0.3863
  585SOL    HW1 1754   0.433   2.713   0.035 -0.4959 -0.0645  0.9585
  585SOL    HW2 1755   0.340   2.607  -0.021 -1.5444  0.7290  1.1755
  586SOL     OW 1756   3.877   3.810   1.936  0.6099  0.2518 -0.0887
  586SOL    HW1 1757   3.904   3.871   2.005 -0.5827 -0.2688  0.8703
  586SOL    HW2 1758   3.937   3.735   1.946  0.7692  0.3960  0.0503
  587SOL     OW 1759   0.071   2.081   2.508 -0.2053  0.2781  0.4845
  587SOL    HW1 1760   0.006   2.115   2.447 -0.1372  0.1431  0.3372
  587SOL    HW2 1761   0.103   2.159   2.555  0.7001  0.5794 -0.5755
  588SOL     OW 1762   1.852   1.839   3.045 -0.2270 -0.1465 -0.4107
  588SOL    HW1 1763   1.943   1.846   3.071 -1.1782  2.2310  3.1202
  588SOL    HW2 1764   1.844   1.754   3.002  3.7716  0.0608 -1.9290
  589SOL     OW 1765   2.768   3.077   0.686  0.1276 -0.3585 -0.3508
  589SOL    HW1 1766   2.784   3.076   0.591  0.0915 -0.5642 -0.3564
  589SOL    HW2 1767   2.756   3.169   0.707  1.8851 -0.1244 -0.2373
  590SOL     OW 1768   1.830   1.603   1.399  0.1821 -0.8029  0.3030
  590SOL    HW1 1769   1.853   1.636   1.312  1.2219  0.6738  1.0846
  590SOL    HW2 1770   1.813   1.510   1.386  1.6675 -0.9004 -1.2534
  591SOL     OW 1771   1.570   1.654   0.168  0.8100 -0.2629  0.6684
  591SOL    HW1 1772   1.558   1.713   0.094 -1.8693 -0.9796  0.4067
  591SOL    HW2 1773   1.577   1.567   0.129 -2.4904 -0.8863  1.1558
  592SOL     OW 1774   0.683   3.570   1.764 -0.3201  0.4946 -0.4916
  592SOL    HW1 1775   0.772   3.537   1.767  0.3935  2.3257 -0.1758
  592SOL    HW2 1776   0.692   3.665   1.776 -2.3371  0.6674  0.0378
  593SOL     OW 1777   2.901   1.239   1.449 -0.4162  0.4741 -0.3012
  593SOL    HW1 1778   2.994   1.252   1.431 -0.5179 -1.3247 -2.4481
  593SOL    HW2 1779   2.895   1.238   1.545  1.7291  0.7695 -0.1282
  594SOL     OW 1780   3.937   0.933   2.834  0.1451 -0.2792  0.3947
  594SOL    HW1 1781   3.946   0.928   2.739 -2.1265  0.2437  0.0997
  594SOL    HW2 1782   3.897   0.849   2.859  0.8382 -0.4643  0.9166
  595SOL     OW 1783   1.197   0.168   1.146  0.6727  0.1955 -0.1980
  595SOL    HW1 1784   1.140   0.123   1.208  0.0237 -0.5600 -1.3054
  595SOL    HW2 1785   1.285   0.137   1.166  0.4488 -0.1498  0.2473
  596SOL     OW 1786   2.389   1.205   0.785  0.0651  0.0842 -0.1885
  596SOL    HW1 1787   2.438   1.179   0.863 -0.2501 -0.4770 -0.1676
  596SOL    HW2 1788   2.453   1.247   0.728 -0.0951  2.4506  1.2456
  597SOL     OW 1789   1.794   2.384   2.242  0.1551  0.0645  0.6209
  597SOL    HW1 1790   1.733   2.312   2.225  0.4927 -0.0663 -0.0261
  597SOL    HW2 1791   1.807   2.382   2.337  0.0744 -0.6527  0.6200
  598SOL     OW 1792   3.006   3.874   3.278  0.4911  0.0467  0.0489
  598SOL    HW1 1793   3.030   3.821   3.354  2.0698  0.0085 -0.4348
  598SOL    HW2 1794   2.953   3.945   3.313 -0.3637 -0.9866  0.9199
  599SOL     OW 1795   0.872   1.221   2.677  0.0299 -0.0240 -0.1988
  599SOL    HW1 1796   0.783   1.205   2.708  0.7929  2.5068  4.0515
  599SOL    HW2 1797   0.860   1.280   2.602 -1.8584  0.2978  0.2962
  600SOL     OW 1798   0.328   3.800   2.679  0.0988  0.5226  0.1139
  600SOL    HW1 1799   0.272   3.757   2.743  0.0194 -1.0343 -0.9416
  600SOL    HW2 1800   0.273   3.810   2.601  0.9579 -0.0970 -0.5941
  601SOL     OW 1801   3.128   3.818   3.819 -0.1748  0.1467 -0.1129
  601SOL    HW1 1802   3.175   3.827   3.902 -0.7085 -2.1359  0.4991
  601SOL    HW2 1803   3.119   3.908   3.786  1.2348  0.9663  1.6187
  602SOL     OW 1804   3.687   2.311   3.865 -0.5584 -0.1588 -0.0524
  602SOL    HW1 1805   3.656   2.343   3.950  0.2872 -0.2753  0.3066
  602SOL    HW2 1806   3.629   2.238   3.844  0.4530 -1.4231  1.3818
  603SOL     OW 1807   2.588   0.897   0.945 -0.2784  0.0823  0.0982
  603SOL    HW1 1808   2.673   0.855   0.932 -0.1463 -0.1051  1.3876
  603SOL    HW2 1809   2.579   0.958   0.872  0.1374 -1.2051 -1.0736
  604SOL     OW 1810   2.899   2.790   1.479 -1.1392 -0.0010 -0.4747
  604SOL    HW1 1811   2.858   2.854   1.537 -1.5198 -0.9536  0.3370
  604SOL    HW2 1812   2.954   2.738   1.536 -1.3550 -0.8244 -1.0034
  605SOL     OW 1813   0.977   2.014   2.749 -0.0035  0.9287  0.1488
  605SOL    HW1 1814   0.986   1.979   2.837 -0.3737  0.5886  0.0598
  605SOL    HW2 1815   0.968   2.108   2.760  0.8998  0.9857  0.4033
  606SOL     OW 1816   3.551   3.507   1.220  0.0954 -0.5918  0.0558
  606SOL    HW1 1817   3.594   3.459   1.150  0.7713 -0.4496  0.3636
  606SOL    HW2 1818   3.499   3.574   1.175 -0.0683 -0.9806 -0.3350
  607SOL     OW 1819   0.101   3.242   1.881  0.1658  0.3080  0.6566
  607SOL    HW1 1820   0.123   3.150   1.896 -1.8630 -0.8020 -2.3294
  607SOL    HW2 1821   0.023   3.256   1.934 -1.0141 -0.5193 -0.7975
  608SOL     OW 1822   1.732   3.474   1.635  0.2165 -0.4703  0.4420
  608SOL    HW1 1823   1.720   3.424   1.554 -0.9834 -0.8693  0.8360
  608SOL    HW2 1824   1.797   3.424   1.684 -0.7146 -1.5031  0.6799
  609SOL     OW 1825   1.765   2.068   0.150 -0.6722  0.2817  0.5551
  609SOL    HW1 1826   1.804   2.080   0.236  0.6046 -0.8674  0.1793
  609SOL    HW2 1827   1.677   2.106   0.158 -0.2645  0.9952  2.0774
  610SOL     OW 1828   3.788   2.303   3.138 -0.1392  0.1324  0.1095
  610SOL    HW1 1829   3.863   2.254   3.172 -0.9056 -0.1708  1.4065
  610SOL    HW2 1830   3.792   2.388   3.182  0.4529  0.7911 -1.1733
  611SOL     OW 1831   2.251   2.791   3.566  0.2464 -0.5866  0.0616
  611SOL    HW1 1832   2.216   2.865   3.615  1.3009  0.6115 -0.9014
  611SOL    HW2 1833   2.274   2.828   3.480 -0.8149 -2.4167 -1.0934
  612SOL     OW 1834   2.813   2.056   3.268  0.5790 -0.6059 -0.2195
  612SOL    HW1 1835   2.842   2.148   3.264  0.5811 -0.2843  3.4877
  612SOL    HW2 1836   2.719   2.060   3.251 -0.1491  0.7690  3.2281
  613SOL     OW 1837   2.085   2.970   3.682 -0.0946  0.2252 -0.0358
  613SOL    HW1 1838   2.057   3.024   3.756  0.6236  0.0413  0.3717
  613SOL    HW2 1839   2.010   2.972   3.622 -1.4428 -1.1704  1.5051
  614SOL     OW 1840   2.282   1.594   3.749  0.0234 -0.1595 -0.3348
  614SOL    HW1 1841   2.345   1.543   3.798 -0.1154  0.2703  0.3075
  614SOL    HW2 1842   2.335   1.660   3.703 -0.0861  2.5922  3.0147
  615SOL     OW 1843   3.077   3.097   1.629 -0.1409  0.5781  1.0618
  615SOL    HW1 1844   3.088   3.181   1.585 -0.3764 -0.3266 -0.8392
  615SOL    HW2 1845   2.986   3.096   1.659  0.1235  1.3515  1.9101
  616SOL     OW 1846   3.702   4.018   0.969 -0.1110  0.0195 -0.6122
  616SOL    HW1 1847   3.795   4.019   0.950  0.1356 -0.0869  0.5380
  616SOL    HW2 1848   3.687   3.934   1.013 -0.2746  1.0369  1.3804
  617SOL     OW 1849   0.372   1.158   0.810 -0.1110 -0.1770  0.2962
  617SOL    HW1 1850   0.329   1.086   0.857  2.6162 -0.1206  3.2335
  617SOL    HW2 1851   0.379   1.126   0.720  0.3754 -3.3983  1.3208
  618SOL     OW 1852   0.991   1.031   2.956 -0.6628 -0.6327  0.1849
  618SOL    HW1 1853   1.080   1.034   2.992 -0.0739  0.2310 -1.2471
  618SOL    HW2 1854   1.003   1.006   2.865 -1.6387  1.7079 -0.6721
  619SOL     OW 1855   3.899   2.828   1.014 -0.4972 -0.5052 -0.3777
  619SOL    HW1 1856   3.951   2.902   0.982  0.1981 -0.2144  1.3223
  619SOL    HW2 1857   3.840   2.808   0.942 -0.0202  1.0605 -1.2630
  620SOL     OW 1858   1.015   0.892   0.254  0.3656 -0.3516 -0.1080
  620SOL    HW1 1859   1.092   0.928   0.299 -1.5094  0.3578  2.8335
  620SOL    HW2 1860   0.953   0.875   0.325 -2.0537 -1.3001 -2.3221
  621SOL     OW 1861   2.313   2.365   1.690  0.3885  0.0815 -0.5645
  621SOL    HW1 1862   2.398   2.376   1.733  1.0751 -0.9291 -1.6250
  621SOL    HW2 1863   2.306   2.441   1.632  0.3385  0.4091 -0.1406
  622SOL     OW 1864   3.145   0.962   0.955  0.0415  0.1433 -0.8808
  622SOL    HW1 1865   3.106   0.983   0.870  0.5264 -2.6226 -1.8923
  622SOL    HW2 1866   3.130   0.868   0.966  1.3439  0.1259  1.3893
  623SOL     OW 1867   0.454   3.382   3.000 -0.0740 -0.1401  0.6491
  623SOL    HW1 1868   0.425   3.292   2.986  1.8753 -0.8805  1.0114
  623SOL    HW2 1869   0.492   3.408   2.917 -2.2390  1.0545 -0.0272
  624SOL     OW 1870   3.660   1.436   0.540  0.5366  0.4083  0.2049
  624SOL    HW1 1871   3.705   1.495   0.481  1.0284 -0.2501 -0.0948
  624SOL    HW2 1872   3.585   1.486   0.571  1.5087  1.5471  0.7815
  625SOL     OW 1873   1.812   2.825   2.918  0.4238  0.0351  1.0440
  625SOL    HW1 1874   1.907   2.822   2.936  1.1190 -0.1568 -2.1131
  625SOL    HW2 1875   1.783   2.735   2.930  1.3048 -0.5324 -0.7658
  626SOL     OW 1876   0.773   3.233   3.000 -0.4185  0.2494  0.3455
  626SOL    HW1 1877   0.716   3.185   2.939  0.3516 -0.1404 -0.0805
  626SOL    HW2 1878   0.809   3.305   2.948 -0.8060  0.7114  0.7151
  627SOL     OW 1879   2.244   0.164   2.856 -0.3751  0.1100  0.4969
  627SOL    HW1 1880   2.164   0.153   2.906  1.6970  0.1275  4.1908
  627SOL    HW2 1881   2.263   0.258   2.859  1.0240 -0.1711  1.9892
  628SOL     OW 1882   2.820   1.835   0.773 -0.7161  0.0400  0.6194
  628SOL    HW1 1883   2.870   1.815   0.694 -1.9995  0.6689 -0.3826
  628SOL    HW2 1884   2.791   1.750   0.805  0.0945 -0.2461  0.6352
  629SOL     OW 1885   2.314   1.998   2.015 -0.1920 -0.2746  0.0079
  629SOL    HW1 1886   2.296   1.985   2.108 -0.8812  0.0531 -0.0746
  629SOL    HW2 1887   2.257   1.935   1.970 -1.1858  0.7917 -0.2602
  630SOL     OW 1888   2.061   3.546   3.277 -0.0400  0.5611 -1.3942
  630SOL    HW1 1889   2.050   3.467   3.223 -0.5219 -1.8024  1.8627
  630SOL    HW2 1890   2.003   3.610   3.237 -1.0155 -1.2919 -3.1594
  631SOL     OW 1891   2.899   2.796   3.502 -0.1197 -0.4784  0.0226
  631SOL    HW1 1892   2.927   2.763   3.587  0.2959  1.1093  0.5393
  631SOL    HW2 1893   2.925   2.729   3.439  0.2348 -1.3273  1.0658
  632SOL     OW 1894   2.198   1.044   0.631  0.2218 -0.7376 -0.1239
  632SOL    HW1 1895   2.262   1.081   0.691  0.6702 -0.8437 -0.5380
  632SOL    HW2 1896   2.207   1.096   0.551  0.8928 -1.7709 -0.7281
  633SOL     OW 1897   0.936   0.826   3.896  0.7801 -0.6156  0.4772
  633SOL    HW1 1898   0.843   0.849   3.887  0.8467 -0.3113  0.5494
  633SOL    HW2 1899   0.935   0.737   3.931  0.5136 -0.6066  0.4955
  634SOL     OW 1900   1.487   0.777   1.069 -0.1013 -0.0124  0.3703
  634SOL    HW1 1901   1.497   0.872   1.071 -1.7796  0.2039 -0.0818
  634SOL    HW2 1902   1.438   0.756   1.149 -3.1568  0.0375 -1.3263
  635SOL     OW 1903   2.130   2.034   4.005 -0.0321  0.6479  0.0186
  635SOL    HW1 1904   2.163   1.951   3.970 -1.7855  1.0307 -2.9359
  635SOL    HW2 1905   2.129   2.093   3.929 -1.6066  2.4533  1.3404
  636SOL     OW 1906   0.878   2.895   2.203 -0.3443 -0.2267  0.1547
  636SOL    HW1 1907   0.792   2.935   2.186 -0.0785  0.5537  0.6103
  636SOL    HW2 1908   0.875   2.870   2.295  0.3083  0.7927  0.4590
  637SOL     OW 1909   0.270   1.986   3.743 -0.0646  0.1842  0.3478
  637SOL    HW1 1910   0.206   1.977   3.672  2.2068  1.3518 -2.0312
  637SOL    HW2 1911   0.238   2.058   3.797 -1.3482 -0.0529 -0.0767
  638SOL     OW 1912   3.498   3.092   0.965  0.3093  0.2514 -0.1714
  638SOL    HW1 1913   3.554   3.050   0.899  0.9618  0.4954  0.2196
  638SOL    HW2 1914   3.419   3.116   0.917  1.2437  1.4658 -1.1513
  639SOL     OW 1915   3.560   0.199   0.642 -0.5513  0.6571 -0.1596
  639SOL    HW1 1916   3.620   0.176   0.571 -2.5200  0.6517 -1.8935
  639SOL    HW2 1917   3.566   0.295   0.648  1.5653  0.5159  1.5591
  640SOL     OW 1918   2.424   2.084   0.932  0.4509 -0.6147  0.6139
  640SOL    HW1 1919   2.384   2.104   1.017  0.3261 -0.3904  0.5027
  640SOL    HW2 1920   2.408   1.991   0.920 -2.0669 -0.1197 -0.4743
  641SOL     OW 1921   0.146   0.991   1.517  0.4831  0.0563  0.4662
  641SOL    HW1 1922   0.082   1.057   1.545 -0.9856 -1.5239  0.9594
  641SOL    HW2 1923   0.121   0.970   1.427  1.3721  0.6176  0.0671
  642SOL     OW 1924   0.349   2.693   2.156  0.5495 -0.0246  0.2368
  642SOL    HW1 1925   0.423   2.682   2.217  1.5282  0.1265 -0.8773
  642SOL    HW2 1926   0.331   2.605   2.124 -0.3364 -0.1878  1.1332
  643SOL     OW 1927   2.537   3.148   2.870 -0.0288  0.1410 -0.3305
  643SOL    HW1 1928   2.514   3.208   2.941  1.9463 -0.2775  0.7261
  643SOL    HW2 1929   2.529   3.061   2.909  0.2304 -0.1331 -0.8819
  644SOL     OW 1930   2.847   0.037   0.570  0.3279  0.1091 -0.3756
  644SOL    HW1 1931   2.937   0.039   0.537  0.1407 -0.5206 -0.9678
  644SOL    HW2 1932   2.795   0.007   0.495 -0.1496 -1.0829  0.4057
  645SOL     OW 1933   0.306   0.390   3.511  0.0042 -0.5833 -0.5590
  645SOL    HW1 1934   0.372   0.397   3.442  0.8989  0.8969  0.3937
  645SOL    HW2 1935   0.351   0.347   3.584  0.5991  2.0945  0.7836
  646SOL     OW 1936   2.545   2.443   0.286  0.1975  0.1473 -0.4627
  646SOL    HW1 1937   2.490   2.413   0.358  0.5056 -0.0598 -0.3091
  646SOL    HW2 1938   2.621   2.482   0.329 -0.9309  2.7017 -0.5920
  647SOL     OW 1939   3.010   1.281   0.811  0.6701 -0.5466  0.2560
  647SOL    HW1 1940   3.078   1.299   0.875  0.4062 -0.8251  0.6132
  647SOL    HW2 1941   3.056   1.285   0.726  1.1427 -0.7988  0.4960
  648SOL     OW 1942   2.583   0.652   1.821 -0.4792 -0.2237  0.0193
  648SOL    HW1 1943   2.558   0.682   1.733  0.2133  0.0600 -0.0874
  648SOL    HW2 1944   2.657   0.707   1.845 -0.5376 -0.4358  0.7051
  649SOL     OW 1945   0.081   0.853   1.238  0.6917 -0.1796  0.1289
  649SOL    HW1 1946   0.026   0.932   1.232  0.4425 -0.3122  0.5697
  649SOL    HW2 1947   0.048   0.795   1.170  1.0386  0.1887 -0.3650
  650SOL     OW 1948   2.831   2.873   0.995 -0.0234  0.5285  0.0865
  650SOL    HW1 1949   2.859   2.947   1.049  0.3527  0.8984 -0.6106
  650SOL    HW2 1950   2.910   2.845   0.949 -0.0212 -0.6888  0.7647
  651SOL     OW 1951   0.505   3.093   3.324  0.2589  0.0676  0.4134
  651SOL    HW1 1952   0.587   3.141   3.311  2.2131 -2.7333  1.3986
  651SOL    HW2 1953   0.526   3.026   3.389 -2.5503 -1.4374 -0.0427
  652SOL     OW 1954   0.583   0.481   1.278  0.4947  0.6331 -0.0043
  652SOL    HW1 1955   0.538   0.546   1.224 -0.8725 -0.3410 -0.0986
  652SOL    HW2 1956   0.516   0.450   1.338  1.9566  1.6294  2.2608
  653SOL     OW 1957   0.116   3.469   3.285 -0.0881  0.3777  0.4019
  653SOL    HW1 1958   0.025   3.439   3.279 -0.4490  1.1273  1.6612
  653SOL    HW2 1959   0.167   3.388   3.291 -0.5028 -0.0965 -1.7056
  654SOL     OW 1960   3.052   3.161   2.329 -0.3647  0.0793  0.2118
  654SOL    HW1 1961   2.996   3.223   2.282 -2.2334 -0.8981  1.0573
  654SOL    HW2 1962   3.140   3.178   2.295 -1.2304  1.2939 -1.5803
  655SOL     OW 1963   1.833   3.930   0.693 -0.1478 -0.1335  0.3344
  655SOL    HW1 1964   1.866   3.841   0.697  2.8869  0.8412 -0.2214
  655SOL    HW2 1965   1.848   3.965   0.781  1.3541  0.6141 -0.1839
  656SOL     OW 1966   0.104   2.189   0.309  0.2501  0.0744  0.3566
  656SOL    HW1 1967   0.144   2.157   0.390  0.5466  0.2864  0.2954
  656SOL    HW2 1968   0.041   2.121   0.285 -0.8440  0.6430  1.4980
  657SOL     OW 1969   2.022   0.904   3.565 -0.0091  0.0272 -0.1789
  657SOL    HW1 1970   1.980   0.942   3.642  1.6332  0.0763  0.7336
  657SOL    HW2 1971   2.033   0.811   3.587 -0.1940 -0.1112 -0.6595
  658SOL     OW 1972   2.307   0.915   1.737 -0.3604 -0.2568 -0.2044
  658SOL    HW1 1973   2.306   0.987   1.799  2.1800 -1.9714  2.0746
  658SOL    HW2 1974   2.397   0.911   1.706 -0.5926 -2.0003 -0.7902
  659SOL     OW 1975   0.217   1.627   1.344 -0.1198  0.6256 -0.2604
  659SOL    HW1 1976   0.253   1.567   1.410  0.6158  2.6974  1.3291
  659SOL    HW2 1977   0.264   1.606   1.264 -0.2252 -1.2028  0.1221
  660SOL     OW 1978   1.752   3.795   0.045  0.3585 -0.1458  0.8461
  660SOL    HW1 1979   1.756   3.795  -0.051 -2.2940 -1.6268  0.6251
  660SOL    HW2 1980   1.840   3.818   0.073  1.2214  0.3287 -1.9411
  661SOL     OW 1981   3.449   3.676   1.613 -0.2577  0.4672 -0.6174
  661SOL    HW1 1982   3.400   3.598   1.635  0.0938  0.1825 -0.8234
  661SOL    HW2 1983   3.431   3.738   1.684  0.8627 -0.4285  0.5002
  662SOL     OW 1984   3.297   0.624   2.998  0.5108 -0.4035 -0.2459
  662SOL    HW1 1985   3.391   0.630   3.016  1.2816 -2.2568 -2.9436
  662SOL    HW2 1986   3.277   0.701   2.945  0.6361 -0.3116 -0.1586
  663SOL     OW 1987   2.372   1.017   3.131  0.1188 -0.2089  0.7332
  663SOL    HW1 1988   2.327   1.056   3.056 -2.1261  2.9204  3.3614
  663SOL    HW2 1989   2.317   0.944   3.157 -0.0209 -0.2613  0.2942
  664SOL     OW 1990   3.483   3.736   3.261 -0.5307  0.3293 -0.3681
  664SOL    HW1 1991   3.559   3.778   3.222  0.4402  1.0919  2.1560
  664SOL    HW2 1992   3.472   3.655   3.211  0.7526  1.0966 -1.9903
  665SOL     OW 1993   0.676   0.813   0.611 -0.1323 -0.0490 -0.0612
  665SOL    HW1 1994   0.621   0.830   0.688 -0.0812 -3.0485  0.7513
  665SOL    HW2 1995   0.614   0.789   0.543 -0.0157  0.0052 -0.1868
  666SOL     OW 1996   3.427   1.060   0.067  0.0719 -0.5618 -0.7142
  666SOL    HW1 1997   3.472   1.132   0.023 -0.1757 -0.6542 -1.1227
  666SOL    HW2 1998   3.471   1.052   0.152 -1.3873  1.6570  0.3687
  667SOL     OW 1999   0.874   2.638   3.406  0.3928  0.2320  0.3079
  667SOL    HW1 2000   0.896   2.549   3.433  1.1605  0.3656  0.1451
  667SOL    HW2 2001   0.846   2.682   3.486 -1.0189 -0.4454  0.2174
  668SOL     OW 2002   0.965   2.130   1.222 -0.2491  0.4590 -0.5732
  668SOL    HW1 2003   0.883   2.141   1.270  0.0054 -0.3178  0.0529
  668SOL    HW2 2004   0.990   2.039   1.237  0.9973  0.8247 -0.3267
  669SOL     OW 2005   0.827   0.045   3.577  0.3011 -0.4078 -1.0638
  669SOL    HW1 2006   0.776   0.126   3.567 -0.3887 -0.8231 -1.0045
  669SOL    HW2 2007   0.915   0.074   3.600  0.4505  0.3857 -2.5334
  670SOL     OW 2008   1.048   3.825   0.380  0.1384 -0.1386  0.1652
  670SOL    HW1 2009   1.086   3.816   0.468  1.4554 -1.5837 -0.5021
  670SOL    HW2 2010   1.110   3.780   0.323 -0.0235  1.8374 -1.7076
  671SOL     OW 2011   0.199   1.659   0.429  0.1113 -0.4877 -0.1636
  671SOL    HW1 2012   0.245   1.738   0.403  0.4966 -0.2491  1.1692
  671SOL    HW2 2013   0.145   1.686   0.503  1.5519 -1.8116  1.4534
  672SOL     OW 2014   3.796   0.271   3.715 -0.2383  0.0352 -0.1311
  672SOL    HW1 2015   3.836   0.243   3.797 -0.1675  0.4499 -0.0209
  672SOL    HW2 2016   3.849   0.230   3.646  0.1479  0.2816  0.0196
  673SOL     OW 2017   3.834   1.512   3.734 -0.0241  0.0430  0.6859
  673SOL    HW1 2018   3.849   1.574   3.662  1.2278  0.1594  1.0068
  673SOL    HW2 2019   3.917   1.464   3.741 -1.2126 -2.2646 -0.0789
  674SOL     OW 2020   0.699   3.446   2.061 -0.3291  0.6472 -0.3701
  674SOL    HW1 2021   0.618   3.461   2.109 -0.8305 -0.0219 -0.9896
  674SOL    HW2 2022   0.734   3.365   2.098 -1.2321 -0.4278 -1.7698
  675SOL     OW 2023   1.093   2.184   1.993 -0.4335 -0.8177 -0.9442
  675SOL    HW1 2024   1.014   2.191   2.047  0.4236 -0.4502  0.3034
  675SOL    HW2 2025   1.160   2.151   2.052  0.8277  0.6936 -1.4419
  676SOL     OW 2026   3.842   0.711   3.238 -0.1702  1.0158  0.2352
  676SOL    HW1 2027   3.764   0.672   3.199 -0.1852  1.9413 -0.7272
  676SOL    HW2 2028   3.912   0.690   3.176  0.7452 -1.2632  1.9131
  677SOL     OW 2029   1.671   2.620   2.684  0.2496 -0.5944  0.3754
  677SOL    HW1 2030   1.707   2.604   2.771  0.3732 -2.1175  0.0821
  677SOL    HW2 2031   1.605   2.552   2.673 -0.3707  0.1228 -0.3860
  678SOL     OW 2032   1.630   0.555   0.988  0.2668  0.0471  0.4218
  678SOL    HW1 2033   1.594   0.640   1.014 -0.8337 -0.0310 -0.7473
  678SOL    HW2 2034   1.553   0.501   0.969  0.9053 -1.5291  1.9839
  679SOL     OW 2035   2.242   2.334   0.409 -0.3756 -0.4194  0.1219
  679SOL    HW1 2036   2.279   2.382   0.483 -1.6743 -1.6636  1.6605
  679SOL    HW2 2037   2.171   2.389   0.377  0.1323  0.0822 -0.1602
  680SOL     OW 2038   1.622   2.982   3.035 -0.2981  0.3962 -0.7759
  680SOL    HW1 2039   1.661   3.047   3.093 -0.0114 -0.5984  0.1843
  680SOL    HW2 2040   1.696   2.943   2.990 -0.0896 -1.5395  1.0946
  681SOL     OW 2041   1.893   3.862   2.113  0.1290 -0.4061  0.1260
  681SOL    HW1 2042   1.938   3.924   2.056  0.2082  1.0882  1.6952
  681SOL    HW2 2043   1.805   3.900   2.124 -0.1804 -1.1482  0.2528
  682SOL     OW 2044   2.596   2.722   1.712 -0.0838 -0.4289  0.1856
  682SOL    HW1 2045   2.624   2.730   1.621  0.6043  0.1277  0.4377
  682SOL    HW2 2046   2.563   2.633   1.719 -2.8005  0.3447 -1.3267
  683SOL     OW 2047   3.025   1.507   2.496 -0.0406 -0.2857 -0.5233
  683SOL    HW1 2048   3.045   1.417   2.523 -1.3505 -0.3345  0.3834
  683SOL    HW2 2049   3.100   1.558   2.527  0.4058 -0.9597 -0.4618
  684SOL     OW 2050   1.214   3.438   3.664 -0.6457  0.4925 -0.7350
  684SOL    HW1 2051   1.252   3.525   3.652  0.6708 -0.0404 -0.5741
  684SOL    HW2 2052   1.153   3.428   3.591 -1.8706  2.0818  0.0055
  685SOL     OW 2053   1.837   2.931   1.275  0.1218  0.3058 -0.3830
  685SOL    HW1 2054   1.871   2.844   1.252  2.7226  1.1880 -0.2020
  685SOL    HW2 2055   1.794   2.962   1.195 -2.3800 -1.7160  0.0239
  686SOL     OW 2056   2.032   1.811   0.864 -0.4206 -0.7539  0.0665
  686SOL    HW1 2057   2.110   1.758   0.879 -1.5725 -2.0746  1.7152
  686SOL    HW2 2058   2.066   1.894   0.829  1.8298 -0.7871  1.9561
  687SOL     OW 2059   0.963   3.652   1.406 -0.1877  0.7752  0.2951
  687SOL    HW1 2060   0.913   3.571   1.393  1.3906 -0.7024  2.8072
  687SOL    HW2 2061   1.023   3.655   1.332  1.2706 -1.6335  1.2722
  688SOL     OW 2062   2.116   3.185   2.823 -0.1248  0.7522  0.4256
  688SOL    HW1 2063   2.192   3.156   2.771 -0.0445 -1.5777  1.6683
  688SOL    HW2 2064   2.040   3.159   2.771 -0.0930  1.9102 -0.2278
  689SOL     OW 2065   1.140   3.294   2.881 -0.4092  0.1606  0.3515
  689SOL    HW1 2066   1.216   3.274   2.937 -1.5819 -1.6330  1.3949
  689SOL    HW2 2067   1.103   3.373   2.919  0.9156  1.0787 -0.1855
  690SOL     OW 2068   1.495   1.550   1.508 -0.0534  0.2002 -0.2501
  690SOL    HW1 2069   1.535   1.603   1.440  0.0296 -1.3094 -1.4327
  690SOL    HW2 2070   1.568   1.519   1.561 -0.0585  0.8460  0.1412
  691SOL     OW 2071   1.150   3.099   0.985  0.1623 -0.0637 -0.5270
  691SOL    HW1 2072   1.158   3.069   1.075  0.1331 -1.3503 -0.9227
  691SOL    HW2 2073   1.058   3.083   0.962  0.2274  0.0106 -0.8544
  692SOL     OW 2074   1.495   3.231   2.361  0.2349  0.2230 -0.4907
  692SOL    HW1 2075   1.538   3.315   2.377  0.1025  0.1752  0.1370
  692SOL    HW2 2076   1.501   3.219   2.266 -3.1485  2.8315 -1.2705
  693SOL     OW 2077   3.454   0.927   2.619  0.1923 -0.6281 -0.8466
  693SOL    HW1 2078   3.366   0.891   2.604  0.6812 -2.0471 -0.4263
  693SOL    HW2 2079   3.468   0.986   2.545 -1.1146 -0.3767 -0.9218
  694SOL     OW 2080   2.212   0.443   3.522  0.1747 -0.5207 -0.0459
  694SOL    HW1 2081   2.159   0.523   3.525  0.0812 -0.6059  0.8085
  694SOL    HW2 2082   2.296   0.471   3.485 -0.2032 -0.2370 -0.7030
  695SOL     OW 2083   2.356   2.507   0.839 -0.1986  0.0416  0.2569
  695SOL    HW1 2084   2.428   2.449   0.865 -1.1063 -0.7944  1.0054
  695SOL    HW2 2085   2.355   2.575   0.906  0.1071  0.2495  0.0528
  696SOL     OW 2086   2.031   3.161   1.272  0.0454 -0.2169 -0.8477
  696SOL    HW1 2087   2.009   3.071   1.293 -1.0948 -0.1265 -1.5855
  696SOL    HW2 2088   2.019   3.167   1.177 -2.3734  1.3325 -0.5328
  697SOL     OW 2089   0.996   2.847   1.616  0.3844  0.0072 -0.2787
  697SOL    HW1 2090   0.903   2.867   1.616  0.3371 -0.2066  0.2015
  697SOL    HW2 2091   1.004   2.770   1.673  0.7340 -0.5297 -1.0402
  698SOL     OW 2092   1.327   2.956   0.690  0.1117 -0.1738 -0.4307
  698SOL    HW1 2093   1.238   2.984   0.670  0.9970  2.2358 -1.4438
  698SOL    HW2 2094   1.333   2.867   0.657 -2.1288 -0.7109  0.4347
  699SOL     OW 2095   0.504   1.715   1.670  0.3211 -0.8482  0.0730
  699SOL    HW1 2096   0.463   1.786   1.719 -0.7340 -1.3913  0.0002
  699SOL    HW2 2097   0.558   1.759   1.604 -1.5143 -0.0815 -0.9777
  700SOL     OW 2098   1.616   1.864   0.349 -0.5393  0.0634  0.7724
  700SOL    HW1 2099   1.703   1.835   0.323 -0.3880  2.6945 -2.2422
  700SOL    HW2 2100   1.556   1.816   0.292 -0.7732  0.8027  0.3845
  701SOL     OW 2101   3.422   1.534   1.115  0.1670  0.1832  0.9189
  701SOL    HW1 2102   3.480   1.576   1.179 -1.4575  1.3326  1.7197
  701SOL    HW2 2103   3.383   1.607   1.067  1.0256 -0.6469 -1.1509
  702SOL     OW 2104   3.738   0.721   1.302  0.4935  0.1743  0.3360
  702SOL    HW1 2105   3.823   0.706   1.261  0.7547  1.8731  0.1770
  702SOL    HW2 2106   3.754   0.710   1.395  0.7267 -0.1479  0.2610
  703SOL     OW 2107   0.374   1.030   0.572  0.0396  0.7235  0.2673
  703SOL    HW1 2108   0.398   0.938   0.559 -1.3816  0.6688 -3.1111
  703SOL    HW2 2109   0.457   1.077   0.570  0.9371 -0.4534  3.4073
  704SOL     OW 2110   2.270   0.688   2.701  0.5864  0.5533 -0.2316
  704SOL    HW1 2111   2.365   0.693   2.691  0.8589 -3.0914 -0.8662
  704SOL    HW2 2112   2.242   0.629   2.631 -1.7214 -0.6699  1.5807
  705SOL     OW 2113   2.807   0.889   3.447  0.0605 -0.0346  0.3912
  705SOL    HW1 2114   2.892   0.886   3.402  0.6387 -0.8199  1.4906
  705SOL    HW2 2115   2.742   0.876   3.378  0.9080 -0.8222 -0.2754
  706SOL     OW 2116   2.490   3.179   0.127  0.4812  0.5029  0.3734
  706SOL    HW1 2117   2.542   3.209   0.053 -0.2189  1.0034  0.0667
  706SOL    HW2 2118   2.424   3.121   0.089  0.8542 -0.1929  0.7660
  707SOL     OW 2119   1.451   3.445   0.710  0.3672 -0.1781  0.0739
  707SOL    HW1 2120   1.543   3.422   0.723  0.5225  0.7435  0.7061
  707SOL    HW2 2121   1.454   3.525   0.658 -0.0912 -0.2515 -0.0648
  708SOL     OW 2122   3.780   0.586   1.556 -0.2366 -0.1866  0.5740
  708SOL    HW1 2123   3.853   0.649   1.556 -0.1434 -0.2923 -0.0785
  708SOL    HW2 2124   3.753   0.582   1.648  1.5115 -1.2175  1.0929
  709SOL     OW 2125   0.521   2.347   1.159  0.3851 -0.7033  0.6364
  709SOL    HW1 2126   0.435   2.377   1.130  0.7941 -0.5783 -0.5145
  709SOL    HW2 2127   0.583   2.396   1.104  1.2622  0.2277  2.3502
  710SOL     OW 2128   2.123   2.191   2.011 -0.2075  0.3585  0.1214
  710SOL    HW1 2129   2.198   2.200   1.952 -0.3138  0.3739 -0.0124
  710SOL    HW2 2130   2.093   2.101   1.999  1.0326 -0.3158  1.6722
  711SOL     OW 2131   1.533   2.212   1.268 -0.3446  0.1338  0.2819
  711SOL    HW1 2132   1.549   2.167   1.185 -0.4058  1.0330 -0.2292
  711SOL    HW2 2133   1.579   2.295   1.260 -0.8667  0.4950  0.8962
  712SOL     OW 2134   0.919   1.175   1.768  0.0208 -0.6121  0.3114
  712SOL    HW1 2135   0.945   1.101   1.824 -1.3027 -0.4964  1.1327
  712SOL    HW2 2136   0.899   1.245   1.830 -4.2022 -1.3006  0.0583
  713SOL     OW 2137   2.651   1.204   0.303  0.4197  0.7330  0.3694
  713SOL    HW1 2138   2.707   1.275   0.272 -0.1049  0.9516 -0.1004
  713SOL    HW2 2139   2.576   1.205   0.243 -0.0519  0.4036  0.9421
  714SOL     OW 2140   1.729   0.335   2.258 -0.2709 -0.1589  0.3884
  714SOL    HW1 2141   1.783   0.295   2.189  0.9436 -0.7933  1.6546
  714SOL    HW2 2142   1.789   0.394   2.303 -1.8682  2.7301 -1.0345
  715SOL     OW 2143   2.481   1.502   0.228 -0.4688  0.6582 -0.8445
  715SOL    HW1 2144   2.466   1.449   0.306 -1.4401  2.0437 -0.0602
  715SOL    HW2 2145   2.567   1.542   0.243  0.9364 -1.7142 -2.0845
  716SOL     OW 2146   3.825   2.916   0.545  0.4091  0.5157  0.1287
  716SOL    HW1 2147   3.904   2.970   0.539  1.2668 -0.8341 -1.1979
  716SOL    HW2 2148   3.796   2.906   0.455 -0.1231 -0.6639  0.4170
  717SOL     OW 2149   3.453   0.699   0.498  0.0603 -0.1059 -0.2330
  717SOL    HW1 2150   3.380   0.671   0.443 -0.2430  0.9838 -0.4021
  717SOL    HW2 2151   3.517   0.735   0.436  0.0219  0.4654  0.0495
  718SOL     OW 2152   0.108   3.871   1.676  0.4167 -0.0153  0.1098
  718SOL    HW1 2153   0.189   3.914   1.702  1.4209 -2.5071  1.5260
  718SOL    HW2 2154   0.045   3.894   1.745  0.4438  0.4976 -0.0356
  719SOL     OW 2155   0.475   1.734   0.119 -0.1265 -0.1349 -0.3600
  719SOL    HW1 2156   0.453   1.643   0.100  0.2607  0.1582 -2.5122
  719SOL    HW2 2157   0.530   1.730   0.197 -0.4534 -1.6888 -0.1717
  720SOL     OW 2158   2.211   3.498   0.102  0.0405 -0.4788 -0.0426
  720SOL    HW1 2159   2.167   3.495   0.017  0.1993 -0.4627 -0.1260
  720SOL    HW2 2160   2.234   3.407   0.121  0.9896 -0.3563 -0.5377
  721SOL     OW 2161   1.956   2.548   2.102  0.1701 -0.1607 -0.1251
  721SOL    HW1 2162   1.901   2.485   2.149 -0.3081 -0.9576 -1.6948
  721SOL    HW2 2163   1.964   2.622   2.162 -0.3164 -1.1810  1.2526
  722SOL     OW 2164   3.918   3.339   2.823  0.5742  0.3592  0.0247
  722SOL    HW1 2165   3.897   3.427   2.789 -2.1876  1.2432  3.4308
  722SOL    HW2 2166   3.968   3.298   2.752  0.6573  4.0748 -2.3925
  723SOL     OW 2167   1.762   0.350   0.154 -0.1986  0.7566  0.8338
  723SOL    HW1 2168   1.778   0.278   0.094  0.0179  0.4430  1.2642
  723SOL    HW2 2169   1.712   0.311   0.226 -0.1932  1.0624  1.0051
  724SOL     OW 2170   0.947   2.927   3.755  0.2419 -0.4969 -1.3952
  724SOL    HW1 2171   0.878   2.866   3.728  1.5069 -2.1759 -1.0388
  724SOL    HW2 2172   0.981   2.963   3.673 -0.0046 -0.8790 -1.6696
  725SOL     OW 2173   1.861   2.025   2.793 -1.0059  0.2239 -0.2743
  725SOL    HW1 2174   1.833   1.971   2.866  1.5760  0.0987  0.7411
  725SOL    HW2 2175   1.831   1.979   2.715 -1.4990 -1.0418  0.6405
  726SOL     OW 2176   0.609   0.292   3.174  0.0864 -0.0175  0.4537
  726SOL    HW1 2177   0.618   0.213   3.121 -0.5930 -1.1462  1.9603
  726SOL    HW2 2178   0.683   0.289   3.235 -0.9154 -0.4836  1.7071
  727SOL     OW 2179   1.158   1.692   3.980  0.5647  0.0873 -0.2047
  727SOL    HW1 2180   1.103   1.730   3.911  0.0062  0.0912  0.2444
  727SOL    HW2 2181   1.098   1.640   4.033  0.1727  3.0190  2.5461
  728SOL     OW 2182   0.024   1.790   0.591  0.7155  0.5847 -0.1021
  728SOL    HW1 2183   0.056   1.842   0.665  0.5948  0.5201 -0.0033
  728SOL    HW2 2184  -0.059   1.754   0.622  1.7573 -1.3380  0.5730
  729SOL     OW 2185   0.107   1.938   3.519  0.2932  0.0228  0.3194
  729SOL    HW1 2186   0.088   1.954   3.427 -0.4079  1.5921  0.7094
  729SOL    HW2 2187   0.164   1.860   3.519 -0.9523 -0.9414 -1.3073
  730SOL     OW 2188   1.110   2.099   0.053 -0.2520  0.0156  0.0032
  730SOL    HW1 2189   1.122   2.034  -0.016 -1.5791  0.1285 -0.3567
  730SOL    HW2 2190   1.170   2.071   0.123 -0.7390 -1.5526 -0.1753
  731SOL     OW 2191   1.618   2.326   2.901  0.0150 -0.1844 -0.5178
  731SOL    HW1 2192   1.592   2.412   2.867 -2.0092 -0.2916  0.5844
  731SOL    HW2 2193   1.713   2.329   2.903  0.0637  1.4098 -2.0488
  732SOL     OW 2194   3.501   1.084   1.486 -0.2419  0.0233  0.1259
  732SOL    HW1 2195   3.415   1.124   1.471 -0.6782 -0.7215  0.6031
  732SOL    HW2 2196   3.515   1.028   1.410  0.3110  0.9458 -0.4771
  733SOL     OW 2197   3.553   2.895   3.664 -0.2600  0.6864  0.0608
  733SOL    HW1 2198   3.497   2.858   3.596  0.3926 -0.5736  0.1916
  733SOL    HW2 2199   3.535   2.842   3.741  0.7594  0.5621  0.2246
  734SOL     OW 2200   1.827   3.710   3.242  0.1161  0.1875  0.2596
  734SOL    HW1 2201   1.757   3.764   3.206 -0.9960 -0.7117  0.9694
  734SOL    HW2 2202   1.784   3.626   3.261  1.0097  0.1206  2.1785
  735SOL     OW 2203   2.540   0.731   1.573  0.2408  0.1502  0.5336
  735SOL    HW1 2204   2.590   0.675   1.513  0.5091 -0.9703  1.7496
  735SOL    HW2 2205   2.450   0.702   1.562 -0.2984  2.3845 -1.8911
  736SOL     OW 2206   1.147   2.146   3.007  0.3702  0.0914 -0.7547
  736SOL    HW1 2207   1.111   2.228   3.042 -0.8263 -0.4891 -0.5505
  736SOL    HW2 2208   1.239   2.146   3.034  0.6281  1.7954 -1.5780
  737SOL     OW 2209   0.369   0.268   3.069  0.0144 -0.2605 -0.5332
  737SOL    HW1 2210   0.298   0.288   3.130 -0.2396  0.4454 -1.0495
  737SOL    HW2 2211   0.448   0.297   3.114 -0.2060  0.5797 -0.6699
  738SOL     OW 2212   0.567   0.638   3.816  0.4204  0.4043  0.1058
  738SOL    HW1 2213   0.475   0.659   3.802 -0.1469 -2.2502 -0.5042
  738SOL    HW2 2214   0.607   0.723   3.837 -1.6831  2.0158 -1.8742
  739SOL     OW 2215   2.125   3.991   2.429 -0.5562 -0.2172 -0.2872
  739SOL    HW1 2216   2.069   4.053   2.476 -0.5216  0.1125 -0.6665
  739SOL    HW2 2217   2.156   3.930   2.495 -0.9480 -0.0866  0.0148
  740SOL     OW 2218   3.802   3.020   3.082  0.4652 -0.1320  0.0476
  740SOL    HW1 2219   3.835   3.056   3.165 -0.8261 -1.8794  1.4012
  740SOL    HW2 2220   3.707   3.022   3.092  0.2898 -3.6221  0.1745
  741SOL     OW 2221   0.031   1.472   1.941 -0.1292  0.0164  0.6773
  741SOL    HW1 2222   0.095   1.429   1.884  0.3531  2.0531 -0.4432
  741SOL    HW2 2223  -0.045   1.485   1.884 -0.2769  0.5837  1.0014
  742SOL     OW 2224   0.225   2.513   0.297 -0.0775 -0.3210  0.2265
  742SOL    HW1 2225   0.285   2.449   0.335  0.7402 -0.0148 -0.5123
  742SOL    HW2 2226   0.224   2.493   0.204  0.8090  1.2067 -0.1496
  743SOL     OW 2227   1.895   3.028   1.856 -0.1415 -0.1629  0.0414
  743SOL    HW1 2228   1.892   3.095   1.788 -1.9249  1.7368  1.8531
  743SOL    HW2 2229   1.821   2.971   1.837  0.2501 -0.5327 -0.4151
  744SOL     OW 2230   3.520   0.499   2.673 -0.5882 -0.0438  0.0832
  744SOL    HW1 2231   3.586   0.453   2.724  1.7926  0.3603 -2.4312
  744SOL    HW2 2232   3.440   0.447   2.684 -0.4693  0.3321  4.5180
  745SOL     OW 2233   1.445   3.522   3.238 -0.4415  0.1572 -0.0360
  745SOL    HW1 2234   1.370   3.462   3.236 -1.1868  1.0857 -0.6360
  745SOL    HW2 2235   1.421   3.593   3.179 -0.2086  1.8042  1.7430
  746SOL     OW 2236   0.417   2.155   0.906 -0.2358 -0.2797 -0.0412
  746SOL    HW1 2237   0.504   2.170   0.945  0.2158 -1.5823 -0.4781
  746SOL    HW2 2238   0.435   2.102   0.829 -1.2119  1.4816 -1.5365
  747SOL     OW 2239   2.794   0.260   2.106 -0.4194  0.2708  0.2927
  747SOL    HW1 2240   2.776   0.175   2.146 -0.9179  1.6309  3.2100
  747SOL    HW2 2241   2.880   0.284   2.140  0.0064  0.6765 -1.0271
  748SOL     OW 2242   0.459   3.745   3.320  0.0863  0.2172  0.2253
  748SOL    HW1 2243   0.408   3.721   3.242 -1.4632  1.1665  0.8909
  748SOL    HW2 2244   0.500   3.663   3.348 -1.3737 -0.6924 -0.1641
  749SOL     OW 2245   0.546   1.968   0.738 -0.3106 -0.4973 -0.4596
  749SOL    HW1 2246   0.501   1.885   0.720  1.5698 -1.3939 -1.3028
  749SOL    HW2 2247   0.625   1.943   0.786 -0.3738  0.9676  0.4770
  750SOL     OW 2248   1.237   1.740   2.164 -0.3430  0.0720 -0.0556
  750SOL    HW1 2249   1.330   1.750   2.145 -0.2338  1.3238  1.0326
  750SOL    HW2 2250   1.222   1.645   2.162  1.0648 -0.1726  0.2476
  751SOL     OW 2251   3.911   1.672   2.089 -0.1634 -0.3641  0.1688
  751SOL    HW1 2252   3.862   1.748   2.058  1.2123  0.2099 -0.6788
  751SOL    HW2 2253   3.936   1.626   2.009  0.2101 -0.9473  0.6175
  752SOL     OW 2254   3.701   3.189   1.505  0.1917  0.4551 -0.2757
  752SOL    HW1 2255   3.754   3.241   1.445  1.4407 -1.3990 -0.8651
  752SOL    HW2 2256   3.742   3.201   1.590 -0.0559  1.0944 -0.2401
  753SOL     OW 2257   2.675   3.875   3.862 -0.3489 -0.4618  0.2159
  753SOL    HW1 2258   2.714   3.951   3.904 -0.3642  0.3428 -1.1920
  753SOL    HW2 2259   2.588   3.868   3.903 -0.8850  1.1110 -0.5821
  754SOL     OW 2260   2.805   1.191   0.521 -0.5646 -0.2380  0.0459
  754SOL    HW1 2261   2.898   1.205   0.504 -0.1483  1.8700  3.1572
  754SOL    HW2 2262   2.762   1.222   0.441  1.3356  1.5450 -0.3854
  755SOL     OW 2263   3.280   3.992   3.319  0.2610 -0.0815 -0.3150
  755SOL    HW1 2264   3.198   3.943   3.330 -1.1636  2.1086 -0.5687
  755SOL    HW2 2265   3.348   3.928   3.336 -1.4782 -2.1765 -0.7492
  756SOL     OW 2266   3.853   2.087   3.483  0.5616 -0.3140  0.6571
  756SOL    HW1 2267   3.840   2.023   3.413 -0.3613  0.4134  0.1459
  756SOL    HW2 2268   3.771   2.084   3.533  1.1854 -0.7816  1.6853
  757SOL     OW 2269   0.700   3.660   3.929  0.4017  0.1509 -0.2178
  757SOL    HW1 2270   0.786   3.694   3.951  0.3856  1.8151 -2.2973
  757SOL    HW2 2271   0.667   3.721   3.863 -1.8788 -1.1060 -0.3485
  758SOL     OW 2272   2.809   0.170   1.741 -0.8230 -0.2107  0.1504
  758SOL    HW1 2273   2.900   0.171   1.711 -0.8111 -5.3190 -0.8851
  758SOL    HW2 2274   2.776   0.257   1.720  3.4276  1.4481 -0.6390
  759SOL     OW 2275   2.846   2.508   1.713 -0.1298 -0.3681  0.0066
  759SOL    HW1 2276   2.764   2.521   1.761 -0.5751  0.1164 -0.8461
  759SOL    HW2 2277   2.843   2.418   1.683 -0.6407 -0.1854 -0.5169
  760SOL     OW 2278   2.432   2.400   0.597  0.7850  0.2300  0.0812
  760SOL    HW1 2279   2.389   2.433   0.676  0.4924 -2.5789  1.2162
  760SOL    HW2 2280   2.525   2.396   0.620  0.9704  1.2591 -0.4504
  761SOL     OW 2281   0.455   0.489   3.284  0.3601  0.3033 -0.3319
  761SOL    HW1 2282   0.505   0.429   3.229 -0.0186  0.6536 -1.0772
  761SOL    HW2 2283   0.518   0.523   3.347  0.2900 -2.0261  1.1326
  762SOL     OW 2284   1.797   0.622   1.210  0.1300  0.1334 -0.0532
  762SOL    HW1 2285   1.760   0.563   1.276  0.5086  0.7765  0.7515
  762SOL    HW2 2286   1.763   0.590   1.127  0.0116 -0.9762  0.4116
  763SOL     OW 2287   2.321   1.543   0.550  0.2530  0.1657 -0.0417
  763SOL    HW1 2288   2.381   1.471   0.529  0.6541  0.1485  1.0770
  763SOL    HW2 2289   2.275   1.512   0.628 -0.4024  0.6529 -0.2355
  764SOL     OW 2290   1.859   1.246   1.086  0.5243  0.4921 -0.5058
  764SOL    HW1 2291   1.819   1.316   1.137  1.3223  0.4674  0.1830
  764SOL    HW2 2292   1.841   1.167   1.138  2.3492  0.6158  0.3801
  765SOL     OW 2293   2.629   0.298   0.357 -0.1022  0.5733  0.1051
  765SOL    HW1 2294   2.692   0.225   0.349 -0.3172  0.4481 -0.5600
  765SOL    HW2 2295   2.568   0.284   0.285 -2.5486 -0.8600  2.2908
  766SOL     OW 2296   3.779   1.492   1.846 -0.0759  0.4977  0.1303
  766SOL    HW1 2297   3.696   1.494   1.800 -0.7690  0.8180  1.3435
  766SOL    HW2 2298   3.768   1.424   1.913  1.0404 -0.2355 -0.3982
  767SOL     OW 2299   1.968   3.329   0.386  0.2218 -0.4149  0.2521
  767SOL    HW1 2300   2.026   3.300   0.457  0.1809 -1.2217 -0.0349
  767SOL    HW2 2301   1.929   3.248   0.352  1.0906 -0.1616 -1.4405
  768SOL     OW 2302   2.960   1.032   0.101  0.3541  0.1572 -0.5404
  768SOL    HW1 2303   2.888   1.064   0.048 -0.8057 -1.0794  0.2346
  768SOL    HW2 2304   2.967   1.094   0.174  0.4500  0.5877 -0.9141
  769SOL     OW 2305   0.943   2.120   0.541 -0.0897  0.0206 -0.4795
  769SOL    HW1 2306   1.013   2.055   0.540 -2.2602 -2.4696  0.5721
  769SOL    HW2 2307   0.888   2.098   0.466 -1.8524 -0.6107  0.9304
  770SOL     OW 2308   0.423   2.271   2.249  0.4534 -0.5805  0.0714
  770SOL    HW1 2309   0.389   2.351   2.289 -1.0516 -0.1911 -1.8561
  770SOL    HW2 2310   0.498   2.300   2.197  0.3616 -0.5297 -0.0342
  771SOL     OW 2311   3.161   2.332   1.186  0.1053  0.7079  0.6366
  771SOL    HW1 2312   3.103   2.263   1.220  0.2740 -0.7138 -1.7353
  771SOL    HW2 2313   3.123   2.355   1.101  2.5770  0.2271 -0.6875
  772SOL     OW 2314   3.446   3.372   0.441 -0.1991  0.5874  0.0755
  772SOL    HW1 2315   3.516   3.392   0.378 -0.2014 -0.1581 -0.1730
  772SOL    HW2 2316   3.492   3.349   0.521 -0.1827  0.9641  0.1755
  773SOL     OW 2317   1.099   3.584   3.883 -0.3011 -0.0951 -0.2652
  773SOL    HW1 2318   1.111   3.526   3.807  0.7372 -0.3135  0.0453
  773SOL    HW2 2319   1.188   3.607   3.909 -0.6709  0.5006  0.4924
  774SOL     OW 2320   2.558   3.786   0.729  0.3539 -0.0854 -0.4931
  774SOL    HW1 2321   2.623   3.746   0.787  1.5988  2.1795 -0.2223
  774SOL    HW2 2322   2.484   3.804   0.786 -0.2045 -1.8384 -0.6036
  775SOL     OW 2323   1.420   2.828   0.328  0.5520 -0.6357  0.1149
  775SOL    HW1 2324   1.428   2.740   0.366 -0.1242 -1.0794 -0.7293
  775SOL    HW2 2325   1.326   2.846   0.329  0.5789 -0.3962 -0.7558
  776SOL     OW 2326   2.373   3.215   3.807  0.5974 -0.6564  0.0085
  776SOL    HW1 2327   2.461   3.227   3.844  0.4117 -0.1663  0.3068
  776SOL    HW2 2328   2.353   3.123   3.824  0.8297 -0.6324  0.4509
  777SOL     OW 2329   2.059   3.165   3.877  0.3153  0.1134  0.0493
  777SOL    HW1 2330   2.145   3.198   3.852  0.1283 -0.6161 -1.6983
  777SOL    HW2 2331   2.055   3.177   3.971  2.3650  0.0863  0.1807
  778SOL     OW 2332   2.196   1.584   3.202  0.2568 -0.5952  0.8122
  778SOL    HW1 2333   2.126   1.543   3.254  0.2259 -1.6098  0.0101
  778SOL    HW2 2334   2.269   1.522   3.207 -0.0195 -1.1276 -0.9804
  779SOL     OW 2335   2.548   2.195   1.875  0.1463  0.0422 -0.4705
  779SOL    HW1 2336   2.627   2.142   1.877 -0.1088 -0.3187  1.0645
  779SOL    HW2 2337   2.510   2.186   1.963 -1.8867 -0.2292 -1.3266
  780SOL     OW 2338   2.891   2.264   1.580 -0.1078  0.3832 -0.4737
  780SOL    HW1 2339   2.890   2.192   1.518 -0.3608  0.5260 -0.6362
  780SOL    HW2 2340   2.967   2.317   1.554  0.1675  0.0992 -0.2618
  781SOL     OW 2341   2.022   0.602   3.932  0.6235 -0.0708  0.0970
  781SOL    HW1 2342   2.037   0.668   4.001  1.6072 -0.6336  0.4516
  781SOL    HW2 2343   2.077   0.528   3.958 -1.0700 -1.3679  0.1299
  782SOL     OW 2344   0.041   2.385   0.561 -0.2648 -0.4815  0.4573
  782SOL    HW1 2345   0.129   2.367   0.528  0.3088  0.9806  1.0622
  782SOL    HW2 2346   0.002   2.442   0.495  0.2169  0.9621  1.3742
  783SOL     OW 2347   0.187   2.995   3.917 -0.0631  0.3097 -0.0296
  783SOL    HW1 2348   0.100   2.957   3.931  0.4008 -1.8399 -2.4172
  783SOL    HW2 2349   0.241   2.955   3.986 -0.2101 -1.2583 -0.7795
  784SOL     OW 2350   2.856   1.646   2.779  0.2700  0.4527  0.2777
  784SOL    HW1 2351   2.822   1.645   2.868 -0.9907  0.8904 -0.1715
  784SOL    HW2 2352   2.778   1.638   2.723  0.9631  0.8904 -0.7946
  785SOL     OW 2353   3.633   1.422   3.114  0.4553  0.0780  0.1775
  785SOL    HW1 2354   3.671   1.493   3.167  0.7045 -2.3244  3.5415
  785SOL    HW2 2355   3.539   1.434   3.122  0.4668 -0.6903  2.0024
  786SOL     OW 2356   0.251   2.459   2.357 -0.4611 -0.9436  0.6023
  786SOL    HW1 2357   0.220   2.549   2.356 -3.4435 -1.8573 -1.1139
  786SOL    HW2 2358   0.262   2.439   2.450  1.0276  1.3453  1.0033
  787SOL     OW 2359   3.776   2.621   3.883  0.0102  0.7168 -0.0519
  787SOL    HW1 2360   3.705   2.641   3.822 -1.6453 -2.1433  0.7968
  787SOL    HW2 2361   3.739   2.640   3.969  1.7374  3.0298  0.2746
  788SOL     OW 2362   1.679   2.892   3.305 -0.2766  0.3293  0.2284
  788SOL    HW1 2363   1.624   2.872   3.381 -1.1448  1.7138 -0.0000
  788SOL    HW2 2364   1.618   2.915   3.236  0.5536  1.7928 -0.0640
  789SOL     OW 2365   1.378   4.009   1.574  0.4925 -0.0890  0.0958
  789SOL    HW1 2366   1.391   3.984   1.482  2.1473 -0.5941  0.4410
  789SOL    HW2 2367   1.381   3.927   1.622  1.6971  0.3526  0.8096
  790SOL     OW 2368   0.127   0.315   3.827  0.1894 -0.4836 -0.0967
  790SOL    HW1 2369   0.190   0.369   3.875  0.3668  0.4086 -1.2776
  790SOL    HW2 2370   0.045   0.326   3.874  0.3430  0.4307 -0.0261
  791SOL     OW 2371   3.658   3.689   2.217  0.1031 -0.0733 -0.2361
  791SOL    HW1 2372   3.608   3.704   2.137 -0.3807  1.8260  0.3778
  791SOL    HW2 2373   3.608   3.733   2.286  1.8365  0.6093  0.6551
  792SOL     OW 2374   2.805   3.753   0.355  0.2854  0.5734 -0.3949
  792SOL    HW1 2375   2.846   3.691   0.294 -1.7236 -0.1259 -1.1504
  792SOL    HW2 2376   2.857   3.747   0.435  2.4123  0.7850 -1.7052
  793SOL     OW 2377   1.934   0.417   2.594  0.0740 -0.0096 -0.0242
  793SOL    HW1 2378   1.991   0.425   2.517 -2.0221 -0.3595 -1.6882
  793SOL    HW2 2379   1.853   0.460   2.569 -1.0569 -1.0708  1.6146
  794SOL     OW 2380   3.370   2.884   0.161 -0.7360  0.4436 -0.3254
  794SOL    HW1 2381   3.418   2.802   0.174 -0.3339  0.7914  0.4287
  794SOL    HW2 2382   3.286   2.857   0.126 -0.1477 -0.2085 -1.3008
  795SOL     OW 2383   1.056   2.605   1.456 -0.8233 -0.4783  0.4752
  795SOL    HW1 2384   1.047   2.696   1.486  0.5755 -0.4073  0.7521
  795SOL    HW2 2385   1.095   2.559   1.530 -1.4537 -1.2989  0.3108
  796SOL     OW 2386   2.161   2.426   1.067 -0.5076 -0.2923 -0.2177
  796SOL    HW1 2387   2.176   2.411   0.974  0.3521  0.3531 -0.1941
  796SOL    HW2 2388   2.131   2.342   1.100 -0.1713 -0.7119 -0.9506
  797SOL     OW 2389   3.003   1.789   2.412  0.6445 -0.4280  0.0926
  797SOL    HW1 2390   2.991   1.702   2.450  0.1063  0.0371  1.0223
  797SOL    HW2 2391   2.969   1.849   2.478 -2.3492  0.3435 -1.9490
  798SOL     OW 2392   2.072   0.744   0.161 -0.3156  0.8726  0.3701
  798SOL    HW1 2393   2.083   0.839   0.166  0.7157  0.7708  0.1533
  798SOL    HW2 2394   2.032   0.721   0.245 -1.1523  1.5605  0.1829
  799SOL     OW 2395   3.898   1.691   0.082 -0.5306  0.3637 -0.3168
  799SOL    HW1 2396   3.984   1.731   0.096 -0.7237  0.9847 -0.8754
  799SOL    HW2 2397   3.915   1.597   0.082 -0.4746  0.1761  4.0912
  800SOL     OW 2398   0.717   2.798   1.540  0.2231 -0.1952  0.2450
  800SOL    HW1 2399   0.685   2.858   1.472 -0.3399  0.6128  1.1963
  800SOL    HW2 2400   0.694   2.711   1.509  2.6010 -0.1401 -2.0337
  801SOL     OW 2401   3.435   3.975   1.147  0.4496  0.0992 -0.4736
  801SOL    HW1 2402   3.478   4.056   1.175 -0.4602  0.4068  0.0654
  801SOL    HW2 2403   3.503   3.908   1.154  0.3446  0.1683  2.3515
  802SOL     OW 2404   2.637   3.798   2.644 -0.5795 -0.1403  0.3617
  802SOL    HW1 2405   2.642   3.740   2.568  2.0441  0.5108 -0.0604
  802SOL    HW2 2406   2.634   3.886   2.606  0.0045  0.1582  0.9965
  803SOL     OW 2407   1.461   0.084   1.128 -0.4692 -0.2055  0.4819
  803SOL    HW1 2408   1.509   0.138   1.065 -0.3888  0.3321  0.9982
  803SOL    HW2 2409   1.529   0.035   1.175 -0.6035 -2.0164 -1.0656
  804SOL     OW 2410   0.757   2.466   3.646 -0.0911 -0.5214 -0.4883
  804SOL    HW1 2411   0.833   2.412   3.666  0.7918  0.3622 -1.3774
  804SOL    HW2 2412   0.776   2.550   3.687 -0.4621 -0.2101 -0.9418
  805SOL     OW 2413   0.524   1.834   2.963  0.9810  0.0657 -0.5832
  805SOL    HW1 2414   0.441   1.826   2.916  1.4741  1.3451 -1.7567
  805SOL    HW2 2415   0.511   1.909   3.021  0.9049 -0.5353  0.1935
  806SOL     OW 2416   3.235   0.872   2.860 -0.4954  0.4133 -0.1815
  806SOL    HW1 2417   3.305   0.936   2.846 -0.0266 -0.4379 -2.1128
  806SOL    HW2 2418   3.175   0.888   2.787 -2.0146  0.7105  1.1057
  807SOL     OW 2419   2.798   2.092   0.483  0.1973 -0.2872  0.1769
  807SOL    HW1 2420   2.728   2.052   0.431  0.8381 -1.1941 -0.0187
  807SOL    HW2 2421   2.809   2.033   0.557  1.7504 -0.9816 -0.5626
  808SOL     OW 2422   0.362   1.987   0.047 -0.0186  0.0794  0.3146
  808SOL    HW1 2423   0.368   1.929   0.123 -3.5309  0.0711  0.7607
  808SOL    HW2 2424   0.297   1.945  -0.010 -0.1549  1.9024 -0.9714
  809SOL     OW 2425   2.194   0.892   1.439 -0.0347  0.3564 -0.1383
  809SOL    HW1 2426   2.177   0.903   1.532 -1.6409 -0.4262 -0.2960
  809SOL    HW2 2427   2.286   0.916   1.427 -0.0122  1.1792  1.5109
  810SOL     OW 2428   1.178   1.789   1.464 -0.2456  0.3718  0.3677
  810SOL    HW1 2429   1.089   1.803   1.497  0.0368 -0.0956  1.3748
  810SOL    HW2 2430   1.220   1.737   1.532 -0.4378 -3.1115 -1.9567
  811SOL     OW 2431   0.932   1.631   1.906  0.1293 -0.6241 -0.3844
  811SOL    HW1 2432   0.961   1.688   1.977 -0.9021  1.0177 -1.2070
  811SOL    HW2 2433   0.978   1.663   1.829  0.8819 -2.0853 -0.5780
  812SOL     OW 2434   2.169   2.093   1.457  0.3067 -0.2799 -0.2086
  812SOL    HW1 2435   2.175   2.016   1.514  1.0215 -0.9007 -1.1036
  812SOL    HW2 2436   2.077   2.119   1.461  0.3114 -0.3543  1.1513
  813SOL     OW 2437   0.337   2.253   3.572 -0.2575 -0.0923  0.2954
  813SOL    HW1 2438   0.241   2.258   3.574 -0.2967 -0.2880 -0.5278
  813SOL    HW2 2439   0.359   2.186   3.637 -0.8056 -1.2714 -0.6863
  814SOL     OW 2440   0.039   3.941   2.604 -0.5030 -0.4041  0.5015
  814SOL    HW1 2441  -0.049   3.904   2.603 -1.3905  1.6267  0.0609
  814SOL    HW2 2442   0.073   3.925   2.516 -1.3397  0.8318 -0.0639
  815SOL     OW 2443   0.521   2.538   1.385  0.0753 -0.7188  0.4738
  815SOL    HW1 2444   0.512   2.467   1.322  1.3224 -1.5441  1.1905
  815SOL    HW2 2445   0.610   2.529   1.419 -0.2224  0.3427  1.5996
  816SOL     OW 2446   2.431   1.950   2.960 -0.1624  0.2083 -0.5067
  816SOL    HW1 2447   2.411   2.027   2.907 -1.0304 -0.2172 -0.8170
  816SOL    HW2 2448   2.345   1.916   2.986  0.2148 -0.5415 -0.2110
  817SOL     OW 2449   1.900   3.245   1.532  0.0936 -0.4321  0.1072
  817SOL    HW1 2450   1.974   3.231   1.472 -0.3589 -1.0826 -0.3077
  817SOL    HW2 2451   1.941   3.262   1.617  0.7256 -0.6333 -0.1504
  818SOL     OW 2452   1.655   1.439   3.192  0.3021  0.2578  0.3488
  818SOL    HW1 2453   1.590   1.454   3.124 -0.4052 -1.0317  0.7155
  818SOL    HW2 2454   1.736   1.475   3.156 -0.1759  0.1047 -0.9330
  819SOL     OW 2455   3.441   2.749   1.328 -0.1114 -0.0838  0.0729
  819SOL    HW1 2456   3.370   2.685   1.327  1.0509 -1.4770  1.6411
  819SOL    HW2 2457   3.407   2.822   1.378 -1.8825  1.1816 -2.7131
  820SOL     OW 2458   3.413   0.565   1.891 -1.0969  0.1925  0.2916
  820SOL    HW1 2459   3.463   0.645   1.908 -0.7702  0.0143  0.1822
  820SOL    HW2 2460   3.336   0.595   1.844  0.0690  0.2405 -1.7154
  821SOL     OW 2461   0.975   2.848   2.924 -0.3264 -0.3260  0.1066
  821SOL    HW1 2462   0.957   2.924   2.868 -0.7441 -0.7479 -0.3445
  821SOL    HW2 2463   0.931   2.868   3.007  0.2947  0.3033  0.2949
  822SOL     OW 2464  -0.004   0.754   1.545 -0.2965 -0.5166  0.5002
  822SOL    HW1 2465   0.034   0.698   1.478 -0.1693 -1.0558  1.0157
  822SOL    HW2 2466   0.063   0.821   1.561  0.2102 -1.1347  1.0027
  823SOL     OW 2467   3.066   3.833   0.963  0.1423  0.0887 -0.1433
  823SOL    HW1 2468   3.141   3.806   0.911  0.0112 -0.3865 -0.0862
  823SOL    HW2 2469   3.103   3.893   1.029  0.3749  0.3327 -0.4877
  824SOL     OW 2470   0.348   3.967   3.834  0.1217 -0.1172  0.1424
  824SOL    HW1 2471   0.339   3.934   3.923 -1.1610  0.1624  0.1351
  824SOL    HW2 2472   0.288   3.913   3.782  0.9149 -0.3339 -0.5741
  825SOL     OW 2473   0.841   0.057   0.403 -0.4169  0.5770 -0.1079
  825SOL    HW1 2474   0.905   0.002   0.447 -0.1646 -0.8889 -2.1265
  825SOL    HW2 2475   0.890   0.099   0.332 -1.5357 -0.2052 -1.4068
  826SOL     OW 2476   2.472   3.319   0.361 -0.8626  0.3682  0.1974
  826SOL    HW1 2477   2.488   3.279   0.276 -0.7186 -0.2583  0.5148
  826SOL    HW2 2478   2.557   3.357   0.386 -0.0758 -1.9447  1.3496
  827SOL     OW 2479   3.737   2.593   3.584 -0.5420  0.4423  0.3877
  827SOL    HW1 2480   3.755   2.683   3.557 -1.0747  1.0833  2.0572
  827SOL    HW2 2481   3.641   2.588   3.589 -0.6832 -1.0201 -2.1661
  828SOL     OW 2482   3.587   1.148   0.783  0.1717 -0.1002 -0.1637
  828SOL    HW1 2483   3.626   1.217   0.729 -0.3052 -1.0208 -1.7360
  828SOL    HW2 2484   3.493   1.161   0.775  0.0465 -1.4620 -1.2266
  829SOL     OW 2485   1.183   0.599   1.078 -0.3550 -0.3899  0.4131
  829SOL    HW1 2486   1.159   0.620   1.168  0.2695  1.0497  0.2773
  829SOL    HW2 2487   1.181   0.683   1.032 -1.2026 -1.1763 -1.0611
  830SOL     OW 2488   0.704   0.257   0.274  0.6070 -0.5724 -0.2249
  830SOL    HW1 2489   0.746   0.209   0.345  1.7464  1.5494  0.6375
  830SOL    HW2 2490   0.670   0.190   0.215  3.4573 -2.4270  0.0717
  831SOL     OW 2491   3.624   3.487   3.346  0.1044 -0.2377  0.2383
  831SOL    HW1 2492   3.572   3.462   3.422 -0.5392 -0.8227 -0.3854
  831SOL    HW2 2493   3.693   3.543   3.382 -1.0830  0.7389  1.0407
  832SOL     OW 2494   1.188   0.117   1.744 -0.0834  0.7113 -0.2367
  832SOL    HW1 2495   1.259   0.073   1.698 -0.2654  0.1436  0.0177
  832SOL    HW2 2496   1.228   0.152   1.823 -0.1708  0.0484  0.1007
  833SOL     OW 2497   1.104   3.085   2.248 -0.2883  0.4370 -0.3772
  833SOL    HW1 2498   1.044   3.011   2.246  0.7910 -0.4515 -0.8027
  833SOL    HW2 2499   1.141   3.084   2.336  0.3974 -0.0858 -0.6692
  834SOL     OW 2500   1.085   1.737   2.782 -0.6190  0.3292  0.2315
  834SOL    HW1 2501   1.042   1.664   2.737 -2.9624  1.0442  1.1935
  834SOL    HW2 2502   1.044   1.815   2.746  1.1109  1.1759 -0.0182
  835SOL     OW 2503   3.159   3.923   1.504  0.2179 -0.4069 -0.9618
  835SOL    HW1 2504   3.126   3.852   1.559 -2.2937  0.9796 -0.5375
  835SOL    HW2 2505   3.084   3.980   1.490  2.0066  1.9894 -1.6069
  836SOL     OW 2506   0.129   0.418   3.163  0.0993  0.8229 -0.7236
  836SOL    HW1 2507   0.143   0.355   3.234 -0.1158  2.5793  0.9649
  836SOL    HW2 2508   0.144   0.503   3.204  0.0818  1.9036 -2.8532
  837SOL     OW 2509   1.528   1.246   1.917  0.9343  0.1270  0.4495
  837SOL    HW1 2510   1.471   1.222   1.845  1.7189  0.3365 -0.2540
  837SOL    HW2 2511   1.524   1.172   1.977 -0.9718  0.6161  1.0040
  838SOL     OW 2512   2.032   2.527   0.653 -0.1650  0.3446  0.4146
  838SOL    HW1 2513   2.044   2.554   0.562 -0.0779  3.3312  1.2052
  838SOL    HW2 2514   1.941   2.499   0.658 -0.4672  1.1143 -0.3961
  839SOL     OW 2515   3.836   3.894   0.316 -0.2313 -0.6374  0.5688
  839SOL    HW1 2516   3.838   3.822   0.253 -1.0115 -0.7677  0.6888
  839SOL    HW2 2517   3.744   3.922   0.318 -0.3624 -1.1140  2.1846
  840SOL     OW 2518   3.754   1.654   3.227  0.0255  0.6074  0.2073
  840SOL    HW1 2519   3.735   1.747   3.231  1.5725  0.9018  1.6166
  840SOL    HW2 2520   3.840   1.649   3.185 -0.8531 -0.3381 -1.5751
  841SOL     OW 2521   1.559   0.424   3.991  0.8843 -0.0468 -0.2501
  841SOL    HW1 2522   1.563   0.511   3.951 -2.8017  0.9923  1.1658
  841SOL    HW2 2523   1.632   0.422   4.053  2.5133  1.0024 -2.0706
  842SOL     OW 2524   1.430   0.559   2.658  0.2542 -0.4979 -0.5128
  842SOL    HW1 2525   1.340   0.527   2.652  0.4775 -1.5983  1.4091
  842SOL    HW2 2526   1.423   0.641   2.707  0.2168 -0.0356 -1.2663
  843SOL     OW 2527   3.639   2.956   3.359  0.5150 -0.2715 -0.2269
  843SOL    HW1 2528   3.608   2.983   3.445 -1.7414 -0.0122 -1.0409
  843SOL    HW2 2529   3.727   2.922   3.374  1.4027  2.5566  1.6837
  844SOL     OW 2530   2.545   1.461   0.829 -0.9310  1.0032 -0.0191
  844SOL    HW1 2531   2.529   1.442   0.921 -1.3408 -0.9187 -0.4459
  844SOL    HW2 2532   2.638   1.482   0.824 -0.7417  0.3636  0.7172
  845SOL     OW 2533   2.954   0.681   2.777  0.6396 -0.1243 -0.3813
  845SOL    HW1 2534   3.005   0.657   2.700  1.7397  1.0006 -0.0238
  845SOL    HW2 2535   3.003   0.643   2.850  0.9036  0.8393 -0.0470
  846SOL     OW 2536   3.061   2.374   2.852 -0.5495  0.1238 -0.0206
  846SOL    HW1 2537   3.090   2.419   2.773 -0.6886  1.7609  0.8125
  846SOL    HW2 2538   3.143   2.353   2.898 -0.4414 -1.2713 -0.7817
  847SOL     OW 2539   1.506   1.058   1.337  0.8622  0.0803  0.3947
  847SOL    HW1 2540   1.499   1.090   1.247  0.0799  0.7301  0.6796
  847SOL    HW2 2541   1.524   1.137   1.389  0.1018 -0.1110  0.9589
  848SOL     OW 2542   0.719   0.072   2.770  0.1326 -0.0360 -0.2413
  848SOL    HW1 2543   0.726   0.033   2.682  0.3157 -1.0267  0.1925
  848SOL    HW2 2544   0.628   0.100   2.777  0.3822  1.0493 -1.1464
  849SOL     OW 2545   3.658   0.915   1.712 -0.1595  0.0609  0.1456
  849SOL    HW1 2546   3.681   1.002   1.680  0.2527 -0.4024 -0.8921
  849SOL    HW2 2547   3.595   0.931   1.782 -1.8080  1.1406 -1.4857
  850SOL     OW 2548   2.251   3.446   2.222 -0.4322 -0.0046 -0.6338
  850SOL    HW1 2549   2.308   3.461   2.297 -3.2811 -2.2697  2.2871
  850SOL    HW2 2550   2.177   3.505   2.236 -1.7777 -1.6150 -0.6472
  851SOL     OW 2551   2.620   2.779   0.444 -0.2068  0.3527 -0.1164
  851SOL    HW1 2552   2.639   2.757   0.353  0.0439  1.1589 -0.2653
  851SOL    HW2 2553   2.630   2.874   0.449  1.8383  0.1441  1.2032
  852SOL     OW 2554   2.117   2.136   2.895 -0.1152 -0.4216  0.1836
  852SOL    HW1 2555   2.127   2.159   2.987 -1.9265 -1.2026  0.6275
  852SOL    HW2 2556   2.043   2.075   2.894 -0.5781  0.1073 -1.8648
  853SOL     OW 2557   0.270   0.339   0.344  0.5137  0.8103  0.8271
  853SOL    HW1 2558   0.355   0.381   0.361  0.9158  0.4970 -0.2911
  853SOL    HW2 2559   0.237   0.315   0.430  1.6318  0.8121  1.2710
  854SOL     OW 2560  -0.031   3.875   0.926 -0.3728  0.2603  0.1561
  854SOL    HW1 2561   0.043   3.872   0.865 -1.1397 -0.8235 -0.7604
  854SOL    HW2 2562   0.007   3.857   1.012  0.7358  1.8405  0.0350
  855SOL     OW 2563   2.168   2.762   2.056 -0.2927  0.4221 -0.0509
  855SOL    HW1 2564   2.212   2.750   1.972 -0.3343 -0.9901  0.0959
  855SOL    HW2 2565   2.088   2.711   2.049 -0.2168  0.1523  0.8931
  856SOL     OW 2566   3.451   0.561   3.351 -0.7583 -0.0161  0.1593
  856SOL    HW1 2567   3.391   0.617   3.399 -1.5396 -1.2992  0.7471
  856SOL    HW2 2568   3.498   0.512   3.419  1.0813  1.0481 -0.2794
  857SOL     OW 2569   1.548   2.043   3.577 -0.1205  0.3604 -0.6289
  857SOL    HW1 2570   1.486   2.011   3.511  0.8072  0.4165 -1.5541
  857SOL    HW2 2571   1.494   2.058   3.655 -0.8566 -2.0779 -0.5620
  858SOL     OW 2572   3.772   0.138   2.742  0.0930 -0.5896  0.0122
  858SOL    HW1 2573   3.824   0.102   2.813 -0.3835  0.4504  0.9092
  858SOL    HW2 2574   3.683   0.109   2.760  0.0117 -0.5806 -0.3513
  859SOL     OW 2575   3.026   2.653   0.396 -0.2891  0.9710 -0.0103
  859SOL    HW1 2576   3.076   2.580   0.434 -2.0222 -0.4962 -0.4005
  859SOL    HW2 2577   3.019   2.717   0.467 -0.9067 -0.3909  1.2132
  860SOL     OW 2578   3.800   0.274   3.267 -0.3296 -0.4134 -0.0507
  860SOL    HW1 2579   3.765   0.331   3.199  1.0402  2.0323  1.1443
  860SOL    HW2 2580   3.732   0.271   3.334 -0.2301  0.3285  0.1037
  861SOL     OW 2581   2.259   3.215   1.637  0.3856  0.2606  0.0491
  861SOL    HW1 2582   2.235   3.218   1.730  0.8311  0.4840  0.1564
  861SOL    HW2 2583   2.350   3.188   1.636 -0.1840 -1.8388 -0.4250
  862SOL     OW 2584   1.371   3.898   1.841  0.1149  0.0235  0.6457
  862SOL    HW1 2585   1.318   3.869   1.915  0.5271  1.4139  1.5290
  862SOL    HW2 2586   1.436   3.957   1.879  0.7347  0.3015 -0.7499
  863SOL     OW 2587   1.274   3.904   0.981 -0.2953  0.1662  0.3844
  863SOL    HW1 2588   1.334   3.965   1.025 -0.3590  1.7238 -1.5566
  863SOL    HW2 2589   1.329   3.830   0.955  0.3366  0.5785  0.5326
  864SOL     OW 2590   2.648   2.128   3.851 -0.0602 -0.3401 -0.0837
  864SOL    HW1 2591   2.731   2.174   3.864 -0.3798  0.1572  0.1915
  864SOL    HW2 2592   2.581   2.195   3.861 -0.5546 -0.9309  0.7083
  865SOL     OW 2593   1.173   0.928   3.189 -0.1286  0.0085 -0.2137
  865SOL    HW1 2594   1.243   0.980   3.148 -0.5086  0.5747 -0.1518
  865SOL    HW2 2595   1.205   0.838   3.184  0.3339  0.1917 -0.7398
  866SOL     OW 2596   1.876   3.088   0.408  0.0848  0.2015 -0.2828
  866SOL    HW1 2597   1.780   3.088   0.402  0.0334  0.7158  0.4294
  866SOL    HW2 2598   1.896   3.013   0.465  0.0923  0.2023 -0.2845
  867SOL     OW 2599   0.037   1.951   0.879 -0.7512 -0.4872 -0.3628
  867SOL    HW1 2600   0.086   1.887   0.931 -0.0221  1.0851  0.9530
  867SOL    HW2 2601   0.089   2.031   0.883 -0.0557 -0.5209 -4.5011
  868SOL     OW 2602   1.525   2.260   0.166  0.5583  0.0268  0.0692
  868SOL    HW1 2603   1.582   2.337   0.178 -1.1812  1.7184 -1.8389
  868SOL    HW2 2604   1.457   2.270   0.233 -0.6190  1.1318 -1.2505
  869SOL     OW 2605   3.822   1.401   0.986  0.5841  0.2807 -1.0403
  869SOL    HW1 2606   3.742   1.367   1.025  0.5100  0.7534 -0.7762
  869SOL    HW2 2607   3.827   1.357   0.901 -0.2195  0.6246 -1.2744
  870SOL     OW 2608   0.736   3.850   1.807  0.0803  0.0201 -0.0632
  870SOL    HW1 2609   0.664   3.901   1.843  0.1060 -1.3522  2.0610
  870SOL    HW2 2610   0.814   3.901   1.828 -0.0458  0.0561  0.3293
  871SOL     OW 2611   1.260   3.410   1.254  0.2076  0.2437  0.5310
  871SOL    HW1 2612   1.281   3.323   1.219 -0.7366  0.1731  0.1021
  871SOL    HW2 2613   1.331   3.430   1.314  0.5710 -0.7166  0.4314
  872SOL     OW 2614   3.347   2.049   2.391  0.0760 -0.6578 -0.1675
  872SOL    HW1 2615   3.312   2.057   2.479 -1.1885  1.4495 -0.7994
  872SOL    HW2 2616   3.278   2.007   2.340  0.3967 -0.9223 -0.3978
  873SOL     OW 2617   3.499   0.124   0.158 -0.0381 -0.0034 -0.5483
  873SOL    HW1 2618   3.544   0.199   0.119  2.3422 -0.0587  1.8205
  873SOL    HW2 2619   3.448   0.162   0.230  2.5163 -0.6398  1.7803
  874SOL     OW 2620   1.291   2.075   2.194 -0.1248 -0.1180 -0.6789
  874SOL    HW1 2621   1.310   2.042   2.282 -0.3211  1.9866  0.2064
  874SOL    HW2 2622   1.367   2.048   2.142 -0.1279 -1.6183  0.0287
  875SOL     OW 2623   3.860   0.294   1.718 -0.0760 -0.1694  0.1995
  875SOL    HW1 2624   3.792   0.346   1.763 -0.8271 -0.3245 -0.7354
  875SOL    HW2 2625   3.844   0.204   1.747 -1.0258 -0.3777 -0.9141
  876SOL     OW 2626   0.641   0.878   2.468 -0.3828  0.3082  1.0386
  876SOL    HW1 2627   0.680   0.852   2.385 -2.5978  1.7832 -0.5552
  876SOL    HW2 2628   0.674   0.813   2.531  0.7222 -1.3492 -1.1045
  877SOL     OW 2629   0.130   3.081   1.124  0.1223  0.4231 -0.4939
  877SOL    HW1 2630   0.170   2.999   1.095 -0.1380 -0.0535  0.4790
  877SOL    HW2 2631   0.163   3.095   1.212  0.2960  1.4631 -0.7042
  878SOL     OW 2632   2.131   2.054   0.758  0.1811 -0.3831 -0.1973
  878SOL    HW1 2633   2.137   2.147   0.778 -1.2108 -0.5743  1.3597
  878SOL    HW2 2634   2.209   2.035   0.707  1.0662  1.4024  0.4073
  879SOL     OW 2635   1.357   1.588   3.303  0.9514  0.1421  0.5680
  879SOL    HW1 2636   1.384   1.597   3.211 -0.3982 -0.0157  0.1347
  879SOL    HW2 2637   1.271   1.545   3.298  0.6911  0.4884  1.8866
  880SOL     OW 2638   2.645   2.443   2.693  0.1407  0.1391 -0.3895
  880SOL    HW1 2639   2.690   2.487   2.620 -1.6294 -0.7718 -2.1130
  880SOL    HW2 2640   2.646   2.351   2.670  0.5557 -0.3268  1.3608
  881SOL     OW 2641   3.246   2.577   1.291  0.1786  0.2602 -0.6819
  881SOL    HW1 2642   3.217   2.492   1.257 -1.3269  0.6296 -0.3669
  881SOL    HW2 2643   3.173   2.637   1.272 -0.1035  0.8117  1.8257
  882SOL     OW 2644   1.033   0.166   2.420  0.1120 -0.2130 -0.0900
  882SOL    HW1 2645   0.994   0.083   2.391 -0.5319  0.1005 -0.1517
  882SOL    HW2 2646   1.054   0.152   2.512 -2.3260  0.3436  0.6232
  883SOL     OW 2647   2.473   3.227   0.758  0.3057 -0.0458  0.2133
  883SOL    HW1 2648   2.488   3.313   0.718  1.9983 -0.5979 -0.4074
  883SOL    HW2 2649   2.485   3.242   0.851  0.8251  0.3486  0.0886
  884SOL     OW 2650   2.618   1.994   2.437 -0.5772 -0.2261 -0.2817
  884SOL    HW1 2651   2.548   1.942   2.398  0.9178 -2.0387 -0.7124
  884SOL    HW2 2652   2.697   1.943   2.421  0.7701  1.4268  0.7581
  885SOL     OW 2653   1.618   3.198   1.515  0.5921  0.2810  0.3217
  885SOL    HW1 2654   1.713   3.194   1.505  0.6240  1.7380 -0.1256
  885SOL    HW2 2655   1.590   3.107   1.506  1.9878 -0.2600  1.0515
  886SOL     OW 2656   1.984   1.354   2.955  0.8367 -0.1389 -0.2355
  886SOL    HW1 2657   2.069   1.390   2.929  0.1825  0.5389 -1.5176
  886SOL    HW2 2658   1.998   1.259   2.957  1.4622 -0.0765 -1.1023
  887SOL     OW 2659   0.619   0.252   3.550 -0.7015  0.1965  0.0344
  887SOL    HW1 2660   0.585   0.188   3.489  0.6854 -0.7413  0.2078
  887SOL    HW2 2661   0.561   0.247   3.626 -0.2116 -1.3600  0.3256
  888SOL     OW 2662   0.599   0.056   1.421 -0.1299 -0.2060 -0.1962
  888SOL    HW1 2663   0.674  -0.000   1.438 -0.3018 -0.6550 -0.8455
  888SOL    HW2 2664   0.628   0.144   1.443  0.1724 -0.5404  0.7615
  889SOL     OW 2665   2.255   3.907   3.441 -0.1832  0.6578  0.2330
  889SOL    HW1 2666   2.227   3.997   3.460 -1.4719  0.0424  1.4635
  889SOL    HW2 2667   2.224   3.856   3.517  2.7560 -0.4241  0.8459
  890SOL     OW 2668   2.497   2.870   2.969  0.0807 -0.3793 -0.1071
  890SOL    HW1 2669   2.410   2.897   3.000  0.7827 -1.0892  2.8415
  890SOL    HW2 2670   2.532   2.818   3.041  2.9559 -0.1408 -1.2127
  891SOL     OW 2671   0.213   2.970   2.647  0.2290  0.3306  0.0200
  891SOL    HW1 2672   0.225   3.061   2.673 -0.1866  0.9099 -1.7016
  891SOL    HW2 2673   0.298   2.943   2.614 -0.0809  0.6797 -1.1135
  892SOL     OW 2674   0.249   0.845   2.819  0.3794 -0.3602  0.1834
  892SOL    HW1 2675   0.322   0.901   2.793 -0.1130 -0.3970 -1.3541
  892SOL    HW2 2676   0.288   0.781   2.879  1.1515  0.9768  1.1449
  893SOL     OW 2677   2.251   2.766   0.195  0.5119  0.1343 -0.3074
  893SOL    HW1 2678   2.181   2.829   0.210  0.3153  0.5353 -2.6779
  893SOL    HW2 2679   2.289   2.752   0.282 -2.3849  0.0004  1.0373
  894SOL     OW 2680   1.467   0.051   3.874 -0.0597  0.0487  0.3352
  894SOL    HW1 2681   1.388   0.100   3.897 -0.4395  0.1792 -1.1344
  894SOL    HW2 2682   1.434  -0.035   3.846  0.3996 -0.2079  0.5748
  895SOL     OW 2683   3.083   1.407   3.341 -0.2426 -0.1299 -0.8829
  895SOL    HW1 2684   3.069   1.314   3.359 -0.1489  0.1290  0.7458
  895SOL    HW2 2685   3.125   1.440   3.421 -2.1354  1.7246 -0.5510
  896SOL     OW 2686   1.364   2.552   3.179  0.6028  0.1368 -0.4045
  896SOL    HW1 2687   1.306   2.577   3.107  1.8876  0.6458 -1.2946
  896SOL    HW2 2688   1.305   2.515   3.245 -0.8297  1.3290 -0.9493
  897SOL     OW 2689   1.272   3.808   2.450 -0.0404 -0.2470 -0.2073
  897SOL    HW1 2690   1.278   3.806   2.546  0.3303 -0.7440 -0.2340
  897SOL    HW2 2691   1.346   3.863   2.423  0.3580 -0.7909 -0.2401
  898SOL     OW 2692   2.811   3.152   3.652  0.4742  0.1493  0.3104
  898SOL    HW1 2693   2.877   3.208   3.693  0.5030  0.7332 -0.5053
  898SOL    HW2 2694   2.857   3.108   3.580  1.3397 -3.5068  2.8499
  899SOL     OW 2695   1.953   2.927   3.363  0.0702 -0.9526  0.4592
  899SOL    HW1 2696   1.871   2.930   3.315 -0.0906 -0.6874  0.7469
  899SOL    HW2 2697   1.950   2.842   3.408  0.3132 -1.2907 -0.1498
  900SOL     OW 2698   2.303   0.630   0.414 -0.2166 -0.2333 -0.5075
  900SOL    HW1 2699   2.271   0.572   0.344  0.3609  0.2931 -1.2162
  900SOL    HW2 2700   2.398   0.624   0.407 -0.1404  1.2813 -1.0022
  901SOL     OW 2701   3.872   0.805   3.648 -0.1116 -0.4895  0.2967
  901SOL    HW1 2702   3.888   0.830   3.557  3.3285 -1.1825  0.5780
  901SOL    HW2 2703   3.821   0.723   3.642  0.0380 -0.5016 -0.9859
  902SOL     OW 2704   2.073   0.954   2.060  0.4268  0.0053  0.5639
  902SOL    HW1 2705   2.120   0.894   2.003 -0.8562 -0.4817 -0.0196
  902SOL    HW2 2706   2.059   0.905   2.141 -0.3858 -0.4083  0.1850
  903SOL     OW 2707   3.393   3.892   1.779 -0.3486 -0.0932  0.3268
  903SOL    HW1 2708   3.305   3.854   1.786 -0.3282 -0.0987  0.5456
  903SOL    HW2 2709   3.379   3.986   1.779 -0.6062 -0.0370 -2.4816
  904SOL     OW 2710   1.978   1.350   3.260  0.5282  0.7677 -0.1551
  904SOL    HW1 2711   1.940   1.263   3.248  0.5650  0.5915  0.8488
  904SOL    HW2 2712   1.993   1.383   3.172 -1.0365  0.4372 -0.5809
  905SOL     OW 2713   2.564   3.296   2.291 -0.0180  0.4077 -0.2250
  905SOL    HW1 2714   2.626   3.311   2.363 -0.8487  1.6336  0.2592
  905SOL    HW2 2715   2.514   3.219   2.318 -1.5148  1.8544  1.4104
  906SOL     OW 2716   1.464   1.603   3.569  0.1482 -0.2847 -0.4238
  906SOL    HW1 2717   1.449   1.611   3.475  0.9459 -0.3082 -0.5616
  906SOL    HW2 2718   1.418   1.677   3.608 -1.2357 -0.9545 -0.7025
  907SOL     OW 2719   1.616   3.910   1.248 -0.5850 -0.1875  0.0413
  907SOL    HW1 2720   1.570   3.833   1.281  0.2468 -0.6041  0.2493
  907SOL    HW2 2721   1.674   3.936   1.319 -0.6890  0.4978 -0.1157
  908SOL     OW 2722   2.001   2.702   3.520 -0.2744 -0.4465 -0.0253
  908SOL    HW1 2723   2.004   2.624   3.576  0.8586 -0.6312 -0.3296
  908SOL    HW2 2724   2.083   2.747   3.538 -0.7919  0.5397 -0.0725
  909SOL     OW 2725   0.333   3.029   0.700 -0.3059  0.2304  0.3086
  909SOL    HW1 2726   0.359   2.951   0.749 -0.5269  0.3176  0.5657
  909SOL    HW2 2727   0.397   3.096   0.726  0.5914 -0.1708 -0.7867
  910SOL     OW 2728   1.327   1.100   3.955 -0.2899 -0.4137  0.0497
  910SOL    HW1 2729   1.381   1.114   3.877  0.9779 -0.1640  0.9377
  910SOL    HW2 2730   1.387   1.116   4.028 -1.7352  0.5041  1.0897
  911SOL     OW 2731   0.677   2.752   2.689 -0.2517  0.1915  0.5161
  911SOL    HW1 2732   0.678   2.728   2.596 -3.6625 -0.1630  0.4170
  911SOL    HW2 2733   0.715   2.677   2.734  1.7739  0.5191 -0.5593
  912SOL     OW 2734   3.704   0.627   0.753  0.5015 -0.2086 -0.2779
  912SOL    HW1 2735   3.695   0.717   0.723  0.2558 -0.7287 -1.8844
  912SOL    HW2 2736   3.674   0.628   0.844  0.3219  1.2816 -0.3342
  913SOL     OW 2737   1.419   2.192   3.060  0.0800  0.0202 -0.1318
  913SOL    HW1 2738   1.383   2.278   3.040 -0.7389 -0.2640  0.0519
  913SOL    HW2 2739   1.488   2.179   2.996  1.0802  1.3393  0.6383
  914SOL     OW 2740   3.771   3.831   2.579  0.7760 -0.2838 -0.4959
  914SOL    HW1 2741   3.688   3.879   2.577  0.9964  0.0875 -1.8768
  914SOL    HW2 2742   3.781   3.804   2.671  0.6074  2.2667  0.3750
  915SOL     OW 2743   1.558   1.982   3.199  0.1630 -0.3084  0.2221
  915SOL    HW1 2744   1.503   2.048   3.158 -0.9612 -1.2200  0.1960
  915SOL    HW2 2745   1.634   2.030   3.231 -0.9620  1.1086  0.8669
  916SOL     OW 2746   0.040   0.708   0.771 -0.5144 -0.5432 -0.2852
  916SOL    HW1 2747   0.121   0.686   0.727 -1.1544 -1.5280 -1.0061
  916SOL    HW2 2748  -0.023   0.725   0.701 -1.2454 -0.9875  0.2426
  917SOL     OW 2749   1.555   2.060   2.832 -0.1550 -0.7090 -0.5855
  917SOL    HW1 2750   1.587   2.149   2.817  1.6662 -1.2615 -0.2370
  917SOL    HW2 2751   1.477   2.053   2.777 -0.7152  1.2896 -0.1344
  918SOL     OW 2752   1.212   0.151   0.459  0.0297 -0.2603  0.2703
  918SOL    HW1 2753   1.222   0.072   0.512  0.3849 -0.5866 -0.2719
  918SOL    HW2 2754   1.185   0.119   0.373  1.1216  0.1315 -0.2321
  919SOL     OW 2755   1.191   3.784   0.603  0.4039  0.0109  0.0760
  919SOL    HW1 2756   1.279   3.745   0.602  0.4365 -0.0137  1.5228
  919SOL    HW2 2757   1.191   3.841   0.679 -0.7772  0.1766 -0.0312
  920SOL     OW 2758   2.508   0.832   3.715 -0.8458  0.3409 -0.4458
  920SOL    HW1 2759   2.446   0.781   3.767 -0.1423 -0.5831 -0.5019
  920SOL    HW2 2760   2.594   0.811   3.752 -0.5134  1.2334 -0.6811
  921SOL     OW 2761   2.490   3.227   1.804  0.1964  0.3894  0.6229
  921SOL    HW1 2762   2.487   3.288   1.877  0.9825 -1.3078  2.1644
  921SOL    HW2 2763   2.501   3.141   1.845  2.3903 -0.4776 -1.5174
  922SOL     OW 2764   3.214   1.970   2.991  0.0845 -0.3015  0.2426
  922SOL    HW1 2765   3.187   2.010   3.074 -1.9468 -0.3999 -0.3042
  922SOL    HW2 2766   3.142   1.911   2.969 -0.0504  0.6740 -2.2232
  923SOL     OW 2767   0.713   3.238   1.509 -0.1571  0.1404 -0.3019
  923SOL    HW1 2768   0.736   3.167   1.450  0.1082  1.1760 -1.4951
  923SOL    HW2 2769   0.621   3.222   1.532 -0.1955 -0.3996 -0.8265
  924SOL     OW 2770   0.383   2.436   1.937 -0.0099 -0.4095  0.2565
  924SOL    HW1 2771   0.475   2.455   1.958 -0.9802  2.8288  2.4126
  924SOL    HW2 2772   0.354   2.512   1.888 -1.7994 -0.8948  0.5048
  925SOL     OW 2773   3.467   2.645   3.779 -0.5240  0.5102  0.0718
  925SOL    HW1 2774   3.374   2.667   3.767 -1.0696 -1.2978  0.6371
  925SOL    HW2 2775   3.466   2.577   3.847  0.8966 -1.8373 -2.0841
  926SOL     OW 2776   0.911   2.708   0.871 -0.0914  0.0549  0.1105
  926SOL    HW1 2777   0.867   2.790   0.894 -1.9749 -0.7311 -0.4778
  926SOL    HW2 2778   0.935   2.669   0.955  1.8082  1.6580  0.3805
  927SOL     OW 2779   3.439   3.243   1.757  0.3524 -0.4574 -0.0167
  927SOL    HW1 2780   3.533   3.255   1.762  0.3966  1.5630 -2.7889
  927SOL    HW2 2781   3.424   3.209   1.668 -1.4976 -1.3758  0.5961
  928SOL     OW 2782   0.621   1.702   0.344 -0.1273 -0.2191 -0.3618
  928SOL    HW1 2783   0.627   1.652   0.426  0.5567  1.1589  0.4747
  928SOL    HW2 2784   0.711   1.727   0.325 -0.4808  0.9434 -0.5810
  929SOL     OW 2785   0.585   1.255   2.746 -0.5317 -0.4002  0.7022
  929SOL    HW1 2786   0.595   1.326   2.809 -1.5255 -0.8479  1.3848
  929SOL    HW2 2787   0.537   1.187   2.793  0.2311 -1.4636  0.0113
  930SOL     OW 2788   1.148   2.666   2.869 -0.4070  0.1572 -0.4236
  930SOL    HW1 2789   1.220   2.714   2.910 -0.5832  0.2549 -0.2311
  930SOL    HW2 2790   1.069   2.710   2.899 -0.5908 -0.5002  0.0748
  931SOL     OW 2791   1.708   2.723   1.562 -0.0193 -0.3562  0.2143
  931SOL    HW1 2792   1.791   2.677   1.551  0.6350 -0.4813  4.0820
  931SOL    HW2 2793   1.651   2.660   1.607  0.0695  1.5810  3.3687
  932SOL     OW 2794   1.063   1.169   3.495 -0.3386  0.2004  0.2297
  932SOL    HW1 2795   1.108   1.088   3.521 -0.9188  0.0691  0.8565
  932SOL    HW2 2796   1.055   1.219   3.576 -1.2420  0.2594  0.1130
  933SOL     OW 2797   3.418   3.226   1.487 -0.2780 -0.3541 -0.0900
  933SOL    HW1 2798   3.406   3.157   1.422 -1.4803  0.9740 -1.3726
  933SOL    HW2 2799   3.513   3.240   1.490 -0.0656 -1.6075 -0.2424
  934SOL     OW 2800   1.204   2.318   3.375 -0.6213 -0.4460  0.1732
  934SOL    HW1 2801   1.168   2.284   3.293 -0.3641 -0.4839  0.0741
  934SOL    HW2 2802   1.174   2.409   3.379 -1.3014 -0.6812  0.4329
  935SOL     OW 2803   2.826   1.968   1.487 -0.1468 -0.5424  0.3139
  935SOL    HW1 2804   2.792   1.920   1.411  2.9258 -2.7415  0.1126
  935SOL    HW2 2805   2.765   1.948   1.558 -0.8677 -1.8989 -0.6345
  936SOL     OW 2806   3.707   1.028   1.042 -0.4742 -0.3341 -0.4198
  936SOL    HW1 2807   3.662   1.092   0.987  2.4506 -0.2212 -2.9712
  936SOL    HW2 2808   3.731   1.077   1.120 -0.2379  1.0774 -1.3344
  937SOL     OW 2809   2.858   0.034   3.447  0.2283  0.1114 -0.6834
  937SOL    HW1 2810   2.813   0.117   3.429  1.6425  0.6984 -1.6598
  937SOL    HW2 2811   2.901   0.047   3.531 -2.7927 -1.1009  1.2321
  938SOL     OW 2812   3.147   0.366   1.963  0.1844  0.0258  0.0908
  938SOL    HW1 2813   3.088   0.391   2.035  3.6116  0.0032  3.2188
  938SOL    HW2 2814   3.192   0.447   1.941  0.1439 -0.2650 -1.0897
  939SOL     OW 2815   0.857   2.580   0.524 -0.5568 -0.0380  0.5298
  939SOL    HW1 2816   0.780   2.533   0.492  0.5928 -0.4341 -1.8529
  939SOL    HW2 2817   0.913   2.512   0.560 -0.6232  0.0555  0.8159
  940SOL     OW 2818   1.050   1.050   2.202  0.1153  0.3889 -0.3939
  940SOL    HW1 2819   1.112   1.115   2.235  1.6390 -1.4904  0.6020
  940SOL    HW2 2820   0.970   1.065   2.253  0.6294  1.1156  0.2163
  941SOL     OW 2821   1.160   1.475   1.097 -0.0131  0.1363  0.3207
  941SOL    HW1 2822   1.173   1.567   1.120  0.0805 -0.0953  1.2294
  941SOL    HW2 2823   1.179   1.427   1.177 -0.3013 -0.6641 -0.0746
  942SOL     OW 2824   0.068   2.260   1.279  0.7434  0.0759 -0.0850
  942SOL    HW1 2825   0.081   2.195   1.347  0.8041  0.6583  0.4705
  942SOL    HW2 2826  -0.023   2.288   1.290  0.9012  0.5276  0.0766
  943SOL     OW 2827   2.838   0.431   1.892 -0.2440  0.4205 -0.4231
  943SOL    HW1 2828   2.775   0.409   1.823  0.8460  0.6978 -1.5379
  943SOL    HW2 2829   2.829   0.360   1.955 -2.6498  1.1435  0.1731
  944SOL     OW 2830   0.365   1.176   1.564  0.2812  0.1772  0.1248
  944SOL    HW1 2831   0.317   1.100   1.532  1.1631 -0.8317  1.0805
  944SOL    HW2 2832   0.449   1.140   1.594 -0.2392  1.0703  3.0086
  945SOL     OW 2833   1.227   0.172   3.857  0.6440 -0.5648 -0.1375
  945SOL    HW1 2834   1.181   0.196   3.937 -0.9621  2.3834 -1.7644
  945SOL    HW2 2835   1.158   0.143   3.797  0.9509  2.3675 -2.1058
  946SOL     OW 2836   0.533  -0.006   1.908  0.0619  0.2579  0.2448
  946SOL    HW1 2837   0.497   0.044   1.982 -0.7579 -0.1989  0.1668
  946SOL    HW2 2838   0.457  -0.023   1.851  0.1553 -1.7278  0.6388
  947SOL     OW 2839   0.882   1.362   3.079  0.1293 -0.4683  0.3922
  947SOL    HW1 2840   0.801   1.410   3.099 -0.2788 -1.7024  1.8989
  947SOL    HW2 2841   0.925   1.352   3.164  0.5190 -2.1500  0.0229
  948SOL     OW 2842   3.206   3.827   2.423 -0.0080  1.1973  0.6484
  948SOL    HW1 2843   3.177   3.743   2.458  1.9588  1.1403  2.2993
  948SOL    HW2 2844   3.126   3.870   2.393 -1.1366 -0.9497  0.4063
  949SOL     OW 2845   1.761   0.058   2.428 -0.3761  1.0857  0.0056
  949SOL    HW1 2846   1.772   0.107   2.345 -0.9513  0.1290 -0.6490
  949SOL    HW2 2847   1.846   0.068   2.472  0.8127 -0.3518 -1.7874
  950SOL     OW 2848   3.546   0.212   1.057 -0.6399  0.2086  0.6778
  950SOL    HW1 2849   3.488   0.247   0.989 -1.3576  1.1056  1.7126
  950SOL    HW2 2850   3.579   0.130   1.020 -1.1211  0.5912 -0.6824
  951SOL     OW 2851   0.613   3.794   2.606  0.4816 -0.0555 -1.4086
  951SOL    HW1 2852   0.654   3.872   2.569  0.4818  0.8129  0.3360
  951SOL    HW2 2853   0.519   3.809   2.594  0.4411  0.6107 -0.3708
  952SOL     OW 2854   3.640   2.529   1.624  0.3945  0.4547  0.0246
  952SOL    HW1 2855   3.707   2.571   1.570  1.1398 -1.3256 -0.5277
  952SOL    HW2 2856   3.588   2.478   1.562  1.2321 -1.5984  0.8897
  953SOL     OW 2857   3.481   0.939   1.905  0.0958 -0.6895  0.0052
  953SOL    HW1 2858   3.393   0.940   1.868  0.1556  0.3797 -0.1222
  953SOL    HW2 2859   3.467   0.947   1.999  0.0829  1.0676 -0.1102
  954SOL     OW 2860   3.233   3.526   3.003 -0.8338 -0.7364  0.0850
  954SOL    HW1 2861   3.180   3.570   3.069 -0.2864  0.8589 -0.4789
  954SOL    HW2 2862   3.230   3.585   2.927  0.8473 -1.1176 -0.3231
  955SOL     OW 2863   0.433   3.352   1.131  0.0001 -0.2101  0.3739
  955SOL    HW1 2864   0.426   3.380   1.222 -0.0359  1.4263 -0.0956
  955SOL    HW2 2865   0.356   3.389   1.088 -1.1228 -2.7350  0.0577
  956SOL     OW 2866   2.308   2.992   0.831 -0.0836  0.2079 -0.3877
  956SOL    HW1 2867   2.321   3.083   0.803  1.6458 -0.5022 -2.2510
  956SOL    HW2 2868   2.385   2.973   0.885  0.3640 -0.5393 -1.2568
  957SOL     OW 2869   3.280   0.318   1.237 -0.1924 -0.6329  0.6305
  957SOL    HW1 2870   3.321   0.390   1.187 -0.7630 -0.7952 -0.0883
  957SOL    HW2 2871   3.354   0.264   1.265  0.2921  0.4786  1.6044
  958SOL     OW 2872   0.816   0.296   1.211  0.0639  0.2426  0.2688
  958SOL    HW1 2873   0.859   0.297   1.296 -0.9294 -0.5895  0.8159
  958SOL    HW2 2874   0.732   0.341   1.226  0.4582  1.3165 -0.6218
  959SOL     OW 2875   1.700   1.460   1.701  0.4139  0.0675 -0.6988
  959SOL    HW1 2876   1.776   1.403   1.683  1.6328  0.8570  1.6046
  959SOL    HW2 2877   1.656   1.418   1.774 -0.8921  0.1256 -1.4270
  960SOL     OW 2878   1.425   0.801   2.806 -0.3110  0.2176  0.2234
  960SOL    HW1 2879   1.464   0.851   2.878 -0.0455  0.2588  0.0526
  960SOL    HW2 2880   1.367   0.863   2.762  1.8702  1.1441 -1.5060
  961SOL     OW 2881   3.856   2.091   4.017  0.1788  0.1386  0.3841
  961SOL    HW1 2882   3.907   2.099   3.936 -1.0283  3.4255 -0.1650
  961SOL    HW2 2883   3.844   1.996   4.028  2.2493 -0.5114 -2.0443
  962SOL     OW 2884   2.314   3.131   2.401 -0.3354  0.4109  0.6610
  962SOL    HW1 2885   2.229   3.139   2.443 -1.4661  0.3875 -1.4681
  962SOL    HW2 2886   2.298   3.158   2.310  1.2561 -2.2570 -0.5338
  963SOL     OW 2887   1.027   1.602   3.556  0.1940  0.1385  0.7964
  963SOL    HW1 2888   0.958   1.649   3.603 -1.1713 -2.3361  1.4733
  963SOL    HW2 2889   1.090   1.577   3.623 -0.6285 -1.4816  1.0324
  964SOL     OW 2890   0.518   2.616   0.899 -0.3711  0.3820  0.1982
  964SOL    HW1 2891   0.581   2.619   0.827 -0.6737 -0.1990 -0.0940
  964SOL    HW2 2892   0.447   2.674   0.871 -0.9235 -0.5483 -0.4021
  965SOL     OW 2893   0.570   3.622   2.828 -0.5291 -0.3764  0.1700
  965SOL    HW1 2894   0.567   3.669   2.911  0.6246 -1.3859  0.8267
  965SOL    HW2 2895   0.610   3.683   2.767 -0.1837 -0.0730  0.6925
  966SOL     OW 2896   0.469   0.348   1.704  0.2338  0.1236  0.7855
  966SOL    HW1 2897   0.375   0.343   1.722  0.2702 -0.6658  0.7845
  966SOL    HW2 2898   0.483   0.439   1.677 -0.8292 -0.1682 -0.8896
  967SOL     OW 2899   0.716   0.480   2.858  0.4151 -0.0317 -0.6977
  967SOL    HW1 2900   0.644   0.451   2.802  0.0591  0.5773 -0.5539
  967SOL    HW2 2901   0.675   0.536   2.924  0.8993 -0.3532 -0.1074
  968SOL     OW 2902   1.487   0.176   2.311 -0.4650  0.3422 -0.4308
  968SOL    HW1 2903   1.538   0.256   2.301  1.7867 -0.8468  0.6259
  968SOL    HW2 2904   1.539   0.109   2.266 -1.9150 -0.6855 -0.6558
  969SOL     OW 2905   3.571   0.202   3.413  1.1228  0.0565  0.2267
  969SOL    HW1 2906   3.527   0.249   3.483  1.1116 -0.3416  0.4922
  969SOL    HW2 2907   3.505   0.197   3.343  1.5408  1.5341 -0.3097
  970SOL     OW 2908   2.932   2.689   3.978  0.3208 -0.0013 -0.5249
  970SOL    HW1 2909   2.889   2.771   3.952  1.2667  1.0836  1.1160
  970SOL    HW2 2910   2.864   2.623   3.972 -0.8288  1.1506 -0.6788
  971SOL     OW 2911   3.265   0.629   3.532 -0.1473  0.1913  0.5788
  971SOL    HW1 2912   3.250   0.705   3.588  1.7833  0.8666  0.2414
  971SOL    HW2 2913   3.179   0.586   3.526 -0.2903 -0.6634  5.0979
  972SOL     OW 2914   0.927   0.635   3.093  0.2873  0.5205  0.7917
  972SOL    HW1 2915   0.943   0.649   3.186  2.8363  1.5149  0.2915
  972SOL    HW2 2916   0.969   0.551   3.073 -0.6401  0.0863  0.5832
  973SOL     OW 2917   0.079   3.043   0.475  0.6093 -0.0240 -0.4591
  973SOL    HW1 2918   0.155   3.022   0.530  0.7968 -1.8610 -1.3541
  973SOL    HW2 2919   0.090   3.136   0.455  1.5005  0.2441  1.1157
  974SOL     OW 2920   1.102   0.360   2.225 -0.2753  0.3449 -0.1228
  974SOL    HW1 2921   1.084   0.452   2.246 -1.1076  0.1651 -0.0169
  974SOL    HW2 2922   1.082   0.313   2.306 -0.7089 -0.0251 -0.4388
  975SOL     OW 2923   2.343   1.124   1.899  0.3576 -0.1606 -0.3442
  975SOL    HW1 2924   2.408   1.125   1.970 -0.3630  0.3817  0.3362
  975SOL    HW2 2925   2.300   1.210   1.905  0.7374  0.1665 -1.8889
  976SOL     OW 2926   2.523   0.757   2.290 -0.4693 -0.4199  0.0098
  976SOL    HW1 2927   2.590   0.822   2.270 -1.1302 -0.3047 -2.0413
  976SOL    HW2 2928   2.563   0.673   2.267 -1.2434 -0.2854 -2.0138
  977SOL     OW 2929   3.807   2.275   1.756  0.5245  0.3298  0.0329
  977SOL    HW1 2930   3.756   2.349   1.724  0.6823 -0.0814 -1.2069
  977SOL    HW2 2931   3.874   2.315   1.813 -1.3641  0.8425  2.0402
  978SOL     OW 2932   0.812   0.044   0.730 -0.2839  0.2280 -0.5964
  978SOL    HW1 2933   0.902   0.020   0.748 -0.5533  0.2969  0.9238
  978SOL    HW2 2934   0.816   0.138   0.711  0.0750  0.0465 -1.4634
  979SOL     OW 2935   1.994   3.903   2.820  0.1921 -0.4330  0.1164
  979SOL    HW1 2936   2.057   3.892   2.891  0.1499 -2.4709 -0.0906
  979SOL    HW2 2937   1.910   3.917   2.864  0.5904  1.2959  0.3987
  980SOL     OW 2938   2.900   2.277   2.395 -0.2457 -0.3184  0.0688
  980SOL    HW1 2939   2.909   2.193   2.439  1.8492 -0.5663 -0.6981
  980SOL    HW2 2940   2.816   2.273   2.351  0.8185 -3.0784 -2.0154
  981SOL     OW 2941   2.537   0.402   1.308 -0.3903 -0.0227  0.5727
  981SOL    HW1 2942   2.459   0.347   1.296  1.0230 -2.1720  0.7225
  981SOL    HW2 2943   2.541   0.455   1.229 -0.9272 -1.3003 -0.3503
  982SOL     OW 2944   1.315   0.659   3.885 -0.0832  0.3861 -0.3218
  982SOL    HW1 2945   1.294   0.593   3.819 -0.8512  0.1360  0.1680
  982SOL    HW2 2946   1.239   0.662   3.943 -0.0411  1.6603 -0.2894
  983SOL     OW 2947   1.292   3.010   2.047 -0.4888  0.0242  0.3826
  983SOL    HW1 2948   1.227   3.016   2.116 -1.5170 -0.7377 -0.4954
  983SOL    HW2 2949   1.259   3.069   1.978 -1.4022 -1.9323 -0.9426
  984SOL     OW 2950   3.932   2.453   2.894 -0.0778 -0.1125  0.2847
  984SOL    HW1 2951   3.968   2.538   2.922  0.0674  0.1927 -0.7819
  984SOL    HW2 2952   3.894   2.416   2.974 -0.0611  0.9137  0.7923
  985SOL     OW 2953   3.476   2.695   3.268  0.3114  0.2753  0.7820
  985SOL    HW1 2954   3.530   2.616   3.266  0.1099  0.1352 -1.0441
  985SOL    HW2 2955   3.540   2.766   3.272  0.8799  0.1818 -2.8367
  986SOL     OW 2956   1.011   3.451   2.366 -0.1597  0.4686 -0.1109
  986SOL    HW1 2957   1.014   3.392   2.291 -0.5541  1.6769 -1.1295
  986SOL    HW2 2958   1.055   3.404   2.436 -0.7031 -1.1219 -0.7914
  987SOL     OW 2959   0.365   2.776   3.773 -0.0277 -0.0055  0.0233
  987SOL    HW1 2960   0.356   2.851   3.831  1.8817  0.7324 -0.5540
  987SOL    HW2 2961   0.364   2.812   3.685  0.8335 -0.6438 -0.2677
  988SOL     OW 2962   1.049   1.873   2.037 -0.0321 -0.7030 -0.5357
  988SOL    HW1 2963   1.117   1.900   1.975  0.6511  3.3321  1.6342
  988SOL    HW2 2964   1.096   1.826   2.105  0.4364  0.7742  0.2064
  989SOL     OW 2965   1.847   0.203   3.382  0.0177 -0.1670  0.1110
  989SOL    HW1 2966   1.853   0.116   3.344  0.6088  0.1760 -0.6148
  989SOL    HW2 2967   1.928   0.214   3.432  0.7946  0.5952 -1.2316
  990SOL     OW 2968   0.503   0.818   1.941  0.1523 -0.2730 -0.0450
  990SOL    HW1 2969   0.421   0.821   1.990 -0.3210  0.1625 -0.8373
  990SOL    HW2 2970   0.548   0.899   1.966 -0.5252  0.4334 -1.0374
  991SOL     OW 2971   3.406   2.028   0.927 -0.1218 -0.1004 -0.1045
  991SOL    HW1 2972   3.426   2.119   0.904 -0.7932  0.2509  0.6519
  991SOL    HW2 2973   3.480   2.000   0.981 -0.0763  0.1157 -0.0526
  992SOL     OW 2974   3.697   3.008   0.751 -0.1094 -0.3378  0.1747
  992SOL    HW1 2975   3.713   2.988   0.658  3.4359  0.1108  0.5174
  992SOL    HW2 2976   3.752   2.945   0.798  0.7403  1.5128  1.7813
  993SOL     OW 2977   0.146   0.824   3.169 -0.0976  0.4132  0.0702
  993SOL    HW1 2978   0.199   0.745   3.160  0.3336  0.7198 -0.1171
  993SOL    HW2 2979   0.106   0.817   3.256  1.7030  1.0356  1.0050
  994SOL     OW 2980   1.061   3.284   3.216 -0.1267  0.0547 -0.2672
  994SOL    HW1 2981   1.063   3.380   3.208  0.1746 -0.0289 -1.2628
  994SOL    HW2 2982   1.150   3.256   3.196 -0.1371 -0.4177  0.3296
  995SOL     OW 2983   3.717   3.201   0.527  0.1518 -0.0884 -0.6769
  995SOL    HW1 2984   3.762   3.164   0.603 -0.1752 -0.7570 -0.7971
  995SOL    HW2 2985   3.677   3.125   0.484 -1.4690  0.5324 -0.3247
  996SOL     OW 2986   2.480   3.431   2.000  0.5748  0.0186 -0.2181
  996SOL    HW1 2987   2.547   3.496   2.017 -0.3723  1.6329 -2.2631
  996SOL    HW2 2988   2.410   3.452   2.062  1.0848 -0.3708  0.5068
  997SOL     OW 2989   2.253   2.500   3.855 -0.4225  0.0944  0.4943
  997SOL    HW1 2990   2.289   2.413   3.842 -0.4219  0.2506 -0.6882
  997SOL    HW2 2991   2.300   2.535   3.930  1.2412 -0.0640 -0.4225
  998SOL     OW 2992   1.314   1.688   1.677 -0.2625  0.5644 -0.2750
  998SOL    HW1 2993   1.277   1.618   1.732 -0.7456 -0.1515 -1.4721
  998SOL    HW2 2994   1.401   1.655   1.653  0.3545  1.3230  0.8478
  999SOL     OW 2995   1.340   3.256   2.700 -0.5447  0.1871  0.4525
  999SOL    HW1 2996   1.269   3.267   2.763 -0.2588  0.0241  0.8032
  999SOL    HW2 2997   1.344   3.340   2.654 -0.6483  0.3599  0.7543
 1000SOL     OW 2998   0.485   0.327   2.109  0.3256 -0.3399  0.3406
 1000SOL    HW1 2999   0.558   0.353   2.053  1.0280  0.4761  1.5729
 1000SOL    HW2 3000   0.459   0.408   2.153 -0.6111 -0.8361  0.7307
 1001SOL     OW 3001   1.874   2.060   2.244  0.1846  0.5583  0.2499
 1001SOL    HW1 3002   1.903   1.981   2.199 -0.2541  0.6041 -0.1126
 1001SOL    HW2 3003   1.779   2.058   2.240  0.1736  1.2741 -0.0529
 1002SOL     OW 3004   3.711   2.012   2.531 -0.1625  0.2590  0.0121
 1002SOL    HW1 3005   3.728   2.014   2.437  1.2772 -0.8606  0.2041
 1002SOL    HW2 3006   3.747   2.094   2.564  0.2970  0.1773 -0.2788
 1003SOL     OW 3007   0.168   1.686   0.861  0.2982 -0.5641  0.5169
 1003SOL    HW1 3008   0.075   1.679   0.883  0.2392 -1.8529 -0.0243
 1003SOL    HW2 3009   0.186   1.608   0.808  1.3279  0.4881 -0.7363
 1004SOL     OW 3010   3.895   3.274   1.163 -0.4371 -0.2891 -0.1222
 1004SOL    HW1 3011   3.948   3.353   1.156 -0.1926 -0.3644  0.7837
 1004SOL    HW2 3012   3.958   3.202   1.162 -0.6812 -0.5119 -1.3232
 1005SOL     OW 3013   3.831   1.228   2.248 -1.2130 -0.7440  0.3761
 1005SOL    HW1 3014   3.908   1.281   2.227 -0.5287 -1.1112  1.8800
 1005SOL    HW2 3015   3.776   1.236   2.170 -0.4210  0.8763 -0.0751
 1006SOL     OW 3016   2.077   1.990   2.409  0.2505  1.2236  0.2466
 1006SOL    HW1 3017   1.986   2.013   2.389 -0.1889 -0.1724  0.5107
 1006SOL    HW2 3018   2.084   1.998   2.504  0.1362  0.4740  0.3251
 1007SOL     OW 3019   1.283   3.628   1.727 -0.3036  0.0362 -0.0508
 1007SOL    HW1 3020   1.262   3.608   1.818 -1.5793  1.2984 -0.0264
 1007SOL    HW2 3021   1.254   3.718   1.715 -0.4406 -0.2018 -1.7877
 1008SOL     OW 3022   3.034   1.778   2.984  0.6737 -0.3079  0.4127
 1008SOL    HW1 3023   3.044   1.724   3.063 -0.8637  0.4467  1.1615
 1008SOL    HW2 3024   2.940   1.790   2.975  0.8904  0.6426 -0.8689
 1009SOL     OW 3025   2.379   1.158   2.310 -0.1683 -0.1717  0.1467
 1009SOL    HW1 3026   2.317   1.124   2.374  0.1898  0.8685  1.0741
 1009SOL    HW2 3027   2.447   1.202   2.362  0.9110 -0.5616 -0.8781
 1010SOL     OW 3028   1.482   0.106   2.583 -0.1100 -0.3277 -0.1688
 1010SOL    HW1 3029   1.473   0.136   2.493 -1.0222 -0.7800 -0.2426
 1010SOL    HW2 3030   1.501   0.012   2.575 -1.7389 -0.7181  0.1074
 1011SOL     OW 3031   2.559   3.660   3.386 -0.2215  0.3664  0.4760
 1011SOL    HW1 3032   2.550   3.643   3.480  1.4322 -0.1599  0.5718
 1011SOL    HW2 3033   2.478   3.624   3.348  0.7502 -3.0591  1.2825
 1012SOL     OW 3034   2.167   0.659   1.296  0.2602 -0.2931  0.4070
 1012SOL    HW1 3035   2.183   0.751   1.317  0.3326 -0.0914 -0.5142
 1012SOL    HW2 3036   2.158   0.657   1.201  0.6117 -1.2875  0.3818
 1013SOL     OW 3037   1.029   0.556   3.846 -0.2287  0.2253  0.3553
 1013SOL    HW1 3038   1.003   0.464   3.849 -1.6169  0.6123  3.4570
 1013SOL    HW2 3039   1.051   0.578   3.936  3.7303  2.0400 -0.8474
 1014SOL     OW 3040   1.716   0.257   1.093  0.1934  0.1072  0.0540
 1014SOL    HW1 3041   1.759   0.263   1.178  0.4194  0.1612 -0.0643
 1014SOL    HW2 3042   1.753   0.329   1.042 -0.5239  0.5708  0.1691
 1015SOL     OW 3043   0.236   2.542   3.122  0.3411  0.1545  0.0620
 1015SOL    HW1 3044   0.269   2.559   3.034 -1.2262 -0.2372 -0.6391
 1015SOL    HW2 3045   0.305   2.491   3.164  0.6057 -0.7510 -1.3800
 1016SOL     OW 3046   2.126   2.574   0.354 -0.4494 -0.5218 -0.2457
 1016SOL    HW1 3047   2.101   2.622   0.275  3.1872 -1.2204 -2.0240
 1016SOL    HW2 3048   2.191   2.631   0.396 -2.3617 -0.1235  2.4406
 1017SOL     OW 3049   0.962   3.560   1.671  0.0551 -0.4803  0.2844
 1017SOL    HW1 3050   0.976   3.638   1.617 -1.3468  0.5592  1.3484
 1017SOL    HW2 3051   1.049   3.538   1.705  0.1319  2.3385  2.2135
 1018SOL     OW 3052   3.145   3.105   3.457 -0.1993 -0.0379 -0.3294
 1018SOL    HW1 3053   3.198   3.157   3.519  0.1999  0.5080 -1.1040
 1018SOL    HW2 3054   3.204   3.091   3.383 -0.4773 -1.1966 -0.3403
 1019SOL     OW 3055   2.138   1.421   1.893 -0.2914  0.1647 -0.0370
 1019SOL    HW1 3056   2.097   1.336   1.880 -0.4104  0.3650 -1.1231
 1019SOL    HW2 3057   2.232   1.404   1.886 -0.1006 -0.3424  2.7412
 1020SOL     OW 3058   3.738   0.969   0.007  0.4223  0.3291 -0.3039
 1020SOL    HW1 3059   3.720   0.883  -0.030  1.2509  0.3914 -0.8822
 1020SOL    HW2 3060   3.734   0.956   0.102  0.3378 -0.2988 -0.3920
 1021SOL     OW 3061   3.362   1.580   0.377  0.0987  0.3827  0.0433
 1021SOL    HW1 3062   3.444   1.626   0.395  1.3047 -1.8258  0.5700
 1021SOL    HW2 3063   3.322   1.566   0.463  1.1746 -1.9258  0.2509
 1022SOL     OW 3064  -0.029  -0.005   2.871  0.3220 -0.1755 -0.0474
 1022SOL    HW1 3065   0.042   0.011   2.933 -0.1224 -2.0499  1.0442
 1022SOL    HW2 3066   0.011   0.009   2.785  0.7350  3.3111  0.5878
 1023SOL     OW 3067   1.326   1.976   1.349 -0.1789 -0.3388  0.3293
 1023SOL    HW1 3068   1.269   2.053   1.353 -0.0808 -0.2658  0.3041
 1023SOL    HW2 3069   1.276   1.907   1.393 -1.1836 -0.8337 -1.4609
 1024SOL     OW 3070   3.702   4.022   2.356  0.0495  0.1057  0.4728
 1024SOL    HW1 3071   3.638   3.962   2.393 -1.1295  1.1192  0.1433
 1024SOL    HW2 3072   3.713   3.992   2.265 -0.9160  0.6657  0.1587
 1025SOL     OW 3073   1.516   3.129   0.802  0.6012 -0.1656 -0.6261
 1025SOL    HW1 3074   1.457   3.183   0.854 -1.6695 -1.2130 -1.9665
 1025SOL    HW2 3075   1.459   3.069   0.755  2.7400 -1.0861 -2.2351
 1026SOL     OW 3076   0.853   0.627   2.452  0.1304  1.1429  0.1353
 1026SOL    HW1 3077   0.784   0.565   2.429  0.1841  0.3417  1.9916
 1026SOL    HW2 3078   0.826   0.664   2.536  2.1349  0.4708  1.1534
 1027SOL     OW 3079   0.394   3.174   3.842 -0.2204  0.0197 -0.5672
 1027SOL    HW1 3080   0.349   3.090   3.831 -1.4403  0.5400  0.1894
 1027SOL    HW2 3081   0.437   3.168   3.927 -0.6674  0.2954 -0.3128
 1028SOL     OW 3082   3.261   0.148   0.925  0.4929 -0.1464  0.4151
 1028SOL    HW1 3083   3.181   0.125   0.877  0.4498  1.3947 -0.2879
 1028SOL    HW2 3084   3.330   0.098   0.881  0.2922  0.4514 -0.5982
 1029SOL     OW 3085   1.601   0.935   3.712 -0.4261 -0.0771 -0.4432
 1029SOL    HW1 3086   1.654   0.932   3.792  0.0190 -1.0234 -0.7588
 1029SOL    HW2 3087   1.638   1.006   3.660 -2.3465  2.3474  1.2695
 1030SOL     OW 3088   1.482   0.895   1.843 -0.1131  0.5620  0.1559
 1030SOL    HW1 3089   1.467   0.913   1.750  0.4602  0.4321  0.0330
 1030SOL    HW2 3090   1.416   0.947   1.889  0.3718  1.5864 -0.2678
 1031SOL     OW 3091   3.226   3.992   0.026  0.0400 -0.2895 -0.6268
 1031SOL    HW1 3092   3.243   4.076   0.070 -1.7139 -0.0888 -0.2642
 1031SOL    HW2 3093   3.221   3.929   0.097  0.5095 -0.5590 -0.8309
 1032SOL     OW 3094   3.451   2.589   2.627  0.2319 -0.4579 -0.5608
 1032SOL    HW1 3095   3.522   2.653   2.628  0.2177 -0.3206 -3.1186
 1032SOL    HW2 3096   3.493   2.506   2.649  0.6096  0.0630  0.7954
 1033SOL     OW 3097   1.855   1.421   3.475 -0.2174 -0.6371 -0.0937
 1033SOL    HW1 3098   1.901   1.404   3.393 -1.0239 -1.8098 -0.3217
 1033SOL    HW2 3099   1.769   1.453   3.448 -0.9241 -2.1534  0.2295
 1034SOL     OW 3100   3.613   1.886   1.125 -0.0680  0.1954 -0.1798
 1034SOL    HW1 3101   3.688   1.917   1.175 -0.2791 -0.4222  0.5408
 1034SOL    HW2 3102   3.589   1.803   1.166 -0.7637  0.0809 -0.7893
 1035SOL     OW 3103   2.491   0.824   0.610 -0.0587  0.2340 -0.2182
 1035SOL    HW1 3104   2.451   0.813   0.524 -0.3899  2.6246 -0.4226
 1035SOL    HW2 3105   2.584   0.812   0.596 -0.0860  0.8521 -0.9750
 1036SOL     OW 3106   2.824   0.397   0.705  0.0800 -0.3554 -0.5083
 1036SOL    HW1 3107   2.759   0.467   0.713  0.1421 -0.4930  3.4318
 1036SOL    HW2 3108   2.774   0.317   0.721  0.9791 -0.5071  1.9987
 1037SOL     OW 3109   1.759   2.089   1.735  0.2278  0.1944 -0.1870
 1037SOL    HW1 3110   1.776   2.158   1.799  0.8177  0.9465 -1.1188
 1037SOL    HW2 3111   1.846   2.064   1.704 -0.0281 -0.4689 -0.3878
 1038SOL     OW 3112   3.285   0.693   0.843 -0.4935 -0.4431  0.3246
 1038SOL    HW1 3113   3.206   0.648   0.875 -0.7248  0.4923  1.1084
 1038SOL    HW2 3114   3.356   0.633   0.864 -0.8588 -0.7329  0.7590
 1039SOL     OW 3115   3.656   3.465   2.750 -0.2318 -0.1790 -0.6362
 1039SOL    HW1 3116   3.737   3.417   2.773  0.5134  1.3575  0.0633
 1039SOL    HW2 3117   3.589   3.425   2.805  0.3265 -0.5998 -0.2419
 1040SOL     OW 3118   0.108   0.901   3.734  0.3817 -0.6473  0.0411
 1040SOL    HW1 3119   0.023   0.856   3.726  0.4612 -1.0990  1.3373
 1040SOL    HW2 3120   0.104   0.972   3.671 -1.4836  0.1129  0.9273
 1041SOL     OW 3121   1.900   2.006   1.390  0.1541  0.0216  0.0900
 1041SOL    HW1 3122   1.814   1.967   1.381 -0.9238  1.9124  1.4205
 1041SOL    HW2 3123   1.957   1.934   1.416 -0.8830 -1.3635 -1.3010
 1042SOL     OW 3124   1.170   0.656   3.322 -0.1811 -0.0092  0.1237
 1042SOL    HW1 3125   1.208   0.695   3.401 -1.3479 -0.8442  1.1344
 1042SOL    HW2 3126   1.080   0.687   3.321 -0.2212 -0.1262 -0.8141
 1043SOL     OW 3127   1.622   2.534   3.186 -0.0129  0.0029 -0.1398
 1043SOL    HW1 3128   1.530   2.549   3.166  0.0698  0.9740  0.1768
 1043SOL    HW2 3129   1.621   2.458   3.245 -0.6838  0.5135  0.5210
 1044SOL     OW 3130   1.795   1.046   1.247 -0.1761 -0.1730  0.0300
 1044SOL    HW1 3131   1.827   0.967   1.204 -1.1365 -0.4260 -0.2630
 1044SOL    HW2 3132   1.710   1.020   1.283 -0.8409  0.8991 -0.6893
 1045SOL     OW 3133   1.970   1.330   0.600  0.3584  0.3029 -0.1641
 1045SOL    HW1 3134   1.952   1.414   0.558 -0.5140  1.0357  1.5621
 1045SOL    HW2 3135   2.023   1.352   0.676 -0.0424 -0.6745  0.4154
 1046SOL     OW 3136   0.416   3.388   1.430  0.2363 -0.2696  0.1161
 1046SOL    HW1 3137   0.432   3.295   1.449  0.7246 -0.6804 -2.0348
 1046SOL    HW2 3138   0.409   3.429   1.516  0.8132 -2.1584  1.1263
 1047SOL     OW 3139   2.180   1.199   2.129  0.1329  0.0203  0.3030
 1047SOL    HW1 3140   2.154   1.111   2.103  0.3181  0.7985 -3.0167
 1047SOL    HW2 3141   2.260   1.186   2.179 -0.1638 -1.7153  0.4007
 1048SOL     OW 3142   1.003   0.450   1.794  0.0102 -0.3195 -0.2651
 1048SOL    HW1 3143   0.988   0.404   1.877 -0.1040  0.7198  0.3044
 1048SOL    HW2 3144   1.098   0.449   1.782 -0.0570 -1.8939 -0.9729
 1049SOL     OW 3145   1.451   3.796   0.668  0.1565 -0.2175  0.0014
 1049SOL    HW1 3146   1.474   3.889   0.672 -1.2743  0.1435  0.6727
 1049SOL    HW2 3147   1.490   3.758   0.747 -0.8215  0.2200  0.7157
 1050SOL     OW 3148   3.872   3.454   0.073 -0.4247  1.0474  0.4648
 1050SOL    HW1 3149   3.955   3.423   0.038  0.3580  4.5200 -1.1930
 1050SOL    HW2 3150   3.864   3.412   0.159  1.9959 -0.9502 -0.1952
 1051SOL     OW 3151   2.910   0.066   1.451 -0.3664 -0.1767 -0.9008
 1051SOL    HW1 3152   2.935   0.158   1.444 -1.6867  0.1949 -0.8864
 1051SOL    HW2 3153   2.815   0.066   1.445 -0.6464 -1.2429  2.0040
 1052SOL     OW 3154   2.261   0.360   2.559  0.3025 -0.0458  0.2306
 1052SOL    HW1 3155   2.206   0.303   2.612  1.0520 -0.1317  0.9417
 1052SOL    HW2 3156   2.330   0.303   2.526  0.1478  0.1217 -0.4083
 1053SOL     OW 3157   0.268   2.394   1.082 -0.1155 -0.8379  0.5778
 1053SOL    HW1 3158   0.210   2.351   1.144 -0.1654  0.9502  1.8481
 1053SOL    HW2 3159   0.214   2.462   1.041  0.4080 -0.8163 -0.1002
 1054SOL     OW 3160   3.128   0.524   3.223  0.1820  0.1829  0.7547
 1054SOL    HW1 3161   3.155   0.458   3.287  1.4384  0.7991  0.8905
 1054SOL    HW2 3162   3.192   0.515   3.151  0.9793  1.8714  1.2112
 1055SOL     OW 3163   2.511   2.672   1.426  0.6026  0.1445  0.0131
 1055SOL    HW1 3164   2.583   2.688   1.365  0.1087 -1.2158 -0.9853
 1055SOL    HW2 3165   2.444   2.629   1.373 -0.3911  0.1416  1.2263
 1056SOL     OW 3166   1.461   0.161   0.841  0.1443 -0.2341 -0.2139
 1056SOL    HW1 3167   1.490   0.250   0.860 -0.4716  0.1906 -1.1471
 1056SOL    HW2 3168   1.366   0.164   0.855 -0.0872 -0.3479 -1.5744
 1057SOL     OW 3169   1.115   2.440   1.917  0.3152 -0.2818  0.0713
 1057SOL    HW1 3170   1.163   2.472   1.994  0.6226 -0.8485  0.1181
 1057SOL    HW2 3171   1.092   2.350   1.939  0.8485 -0.6156 -0.6992
 1058SOL     OW 3172   0.278   1.603   3.619  0.1978 -0.0583 -0.2546
 1058SOL    HW1 3173   0.197   1.592   3.670  0.9112  0.3618  1.0209
 1058SOL    HW2 3174   0.249   1.631   3.533 -1.0433 -0.4041  0.0320
 1059SOL     OW 3175   3.758   2.177   1.497 -0.3503  0.0438 -0.3869
 1059SOL    HW1 3176   3.791   2.257   1.455 -0.6365  0.8476  0.8732
 1059SOL    HW2 3177   3.795   2.180   1.585 -0.0462 -1.4314 -0.4481
 1060SOL     OW 3178   3.140   2.220   3.922 -1.1881 -0.3585 -0.0495
 1060SOL    HW1 3179   3.137   2.308   3.959 -0.1902  0.3353 -1.5104
 1060SOL    HW2 3180   3.201   2.227   3.849 -0.3186 -2.5268  0.4133
 1061SOL     OW 3181   2.306   0.599   1.529  0.0095 -0.1315 -0.4220
 1061SOL    HW1 3182   2.230   0.616   1.585  0.2570  1.8512 -0.6259
 1061SOL    HW2 3183   2.270   0.583   1.442 -0.2069  2.5827 -0.9333
 1062SOL     OW 3184   3.237   1.813   2.276  0.0236  0.2835 -0.3774
 1062SOL    HW1 3185   3.146   1.815   2.305  0.7887  0.5887  2.3213
 1062SOL    HW2 3186   3.275   1.738   2.324  1.3185  0.5282 -0.9922
 1063SOL     OW 3187   2.460   1.014   1.300  0.0030  0.0961  0.6385
 1063SOL    HW1 3188   2.409   1.089   1.269 -0.3511  0.3753  1.8209
 1063SOL    HW2 3189   2.551   1.039   1.284 -0.0949  0.8965  1.2184
 1064SOL     OW 3190   2.544   3.702   0.263  0.0877  0.0249 -0.1867
 1064SOL    HW1 3191   2.610   3.683   0.330 -0.0530  1.1017  0.2786
 1064SOL    HW2 3192   2.556   3.634   0.198  1.1599 -0.2395  0.2653
 1065SOL     OW 3193   3.315   1.797   1.013 -0.0508  0.4017  0.2047
 1065SOL    HW1 3194   3.328   1.868   0.949  0.9549  0.0569  0.0123
 1065SOL    HW2 3195   3.350   1.832   1.095 -2.2748  1.2378  0.8700
 1066SOL     OW 3196   2.731   4.029   0.324  0.3209  0.4027  0.4278
 1066SOL    HW1 3197   2.689   3.950   0.359 -0.4918 -0.2134 -1.7538
 1066SOL    HW2 3198   2.805   3.997   0.273  0.6346  1.1416  0.4031
 1067SOL     OW 3199   0.128   0.749   2.600 -0.1115 -0.2402  0.7677
 1067SOL    HW1 3200   0.157   0.779   2.686  0.4362  0.0577  0.4897
 1067SOL    HW2 3201   0.065   0.815   2.571  0.5621  0.2862  0.4598
 1068SOL     OW 3202   0.608   2.878   0.093  0.3020  0.2692 -0.1782
 1068SOL    HW1 3203   0.628   2.824   0.170  1.3020  1.1099  0.1666
 1068SOL    HW2 3204   0.693   2.896   0.053  0.1604  2.5677  0.4065
 1069SOL     OW 3205   0.957   0.975   2.699 -0.0475  0.1582  0.0671
 1069SOL    HW1 3206   0.946   1.070   2.693 -2.2344 -0.1430 -1.5692
 1069SOL    HW2 3207   1.028   0.955   2.639  1.7504  0.8906  1.8309
 1070SOL     OW 3208   3.302   1.790   1.732 -0.6355  0.0920  0.2515
 1070SOL    HW1 3209   3.389   1.780   1.770  0.0342 -1.8657 -1.6273
 1070SOL    HW2 3210   3.303   1.877   1.693  1.1020 -0.4662 -1.0915
 1071SOL     OW 3211   3.071   2.546   0.997 -0.1213  0.6932  0.0475
 1071SOL    HW1 3212   3.076   2.617   1.062 -0.7855  1.4074 -0.6669
 1071SOL    HW2 3213   2.983   2.511   1.008  0.1608  0.0554  0.3050
 1072SOL     OW 3214   3.575   0.108   1.352  0.1365 -0.2285 -0.0685
 1072SOL    HW1 3215   3.602   0.186   1.400  2.1074 -1.1220  0.4110
 1072SOL    HW2 3216   3.641   0.042   1.376 -1.3829 -2.0011 -0.5369
 1073SOL     OW 3217   0.819   1.361   3.604  0.1808 -0.5190  0.2657
 1073SOL    HW1 3218   0.790   1.314   3.682 -0.6559  0.0820  0.3341
 1073SOL    HW2 3219   0.882   1.425   3.637  1.7837 -1.9606  0.0921
 1074SOL     OW 3220   1.840   1.391   0.307  0.8520  0.1394 -0.3527
 1074SOL    HW1 3221   1.855   1.473   0.355 -0.7246  0.1210  0.2449
 1074SOL    HW2 3222   1.776   1.344   0.361  1.1488 -1.1317 -1.0953
 1075SOL     OW 3223   0.265   0.499   0.760  0.1022 -0.3940 -0.1220
 1075SOL    HW1 3224   0.358   0.509   0.782 -0.5172  4.8892  1.4046
 1075SOL    HW2 3225   0.230   0.442   0.829  1.9994 -1.7582 -0.2177
 1076SOL     OW 3226   2.978   3.981   3.021 -0.1006  0.1929 -0.0483
 1076SOL    HW1 3227   2.984   3.921   3.096 -0.0510  0.3378  0.0624
 1076SOL    HW2 3228   2.921   4.051   3.051  1.3092  1.1611  0.4577
 1077SOL     OW 3229   2.231   2.806   2.312 -0.0777  0.1871 -0.2469
 1077SOL    HW1 3230   2.181   2.735   2.352 -1.1691  0.4968 -1.0133
 1077SOL    HW2 3231   2.219   2.795   2.218 -0.0155  1.1950 -0.3918
 1078SOL     OW 3232   1.467   0.844   4.013 -0.7382  0.0598  0.3748
 1078SOL    HW1 3233   1.419   0.768   3.981 -0.4568  1.3883 -3.8705
 1078SOL    HW2 3234   1.440   0.915   3.955  3.4708  1.7399  0.1338
 1079SOL     OW 3235   3.883   2.491   0.744  0.4475  0.4467  0.0129
 1079SOL    HW1 3236   3.944   2.442   0.688  1.7863  0.0888  1.6793
 1079SOL    HW2 3237   3.846   2.425   0.803  0.4661  1.0620  0.7346
 1080SOL     OW 3238   3.052   3.737   3.519 -0.1357 -0.5222 -0.0957
 1080SOL    HW1 3239   3.023   3.777   3.601  1.9053 -0.1101  0.4710
 1080SOL    HW2 3240   3.021   3.646   3.525 -0.2943 -0.4093  0.9901
 1081SOL     OW 3241   3.464   2.830   0.695 -0.5037 -0.4929  0.8119
 1081SOL    HW1 3242   3.543   2.833   0.749  0.3140 -1.3930 -0.2723
 1081SOL    HW2 3243   3.486   2.769   0.625 -2.6901 -1.9512  1.2823
 1082SOL     OW 3244   1.030   2.732   2.064 -0.0681  0.1713  0.3558
 1082SOL    HW1 3245   0.964   2.772   2.121  0.0937  0.9701  0.0009
 1082SOL    HW2 3246   1.113   2.752   2.107 -0.0534 -0.9157  0.8527
 1083SOL     OW 3247   3.497   0.865   1.292 -0.3423  0.3418  0.1233
 1083SOL    HW1 3248   3.574   0.813   1.315 -1.6563 -2.0082 -0.4394
 1083SOL    HW2 3249   3.507   0.883   1.199  0.1770  1.2576  0.3462
 1084SOL     OW 3250   2.008   3.780   1.116  0.0155 -0.1955  0.4784
 1084SOL    HW1 3251   2.083   3.811   1.168 -0.2693  3.5872 -1.0176
 1084SOL    HW2 3252   2.047   3.740   1.038  0.5349  0.9530  0.1240
 1085SOL     OW 3253   1.763   3.128   2.547 -0.1923  0.2202 -0.5115
 1085SOL    HW1 3254   1.703   3.190   2.588  0.5362  0.2840  0.4775
 1085SOL    HW2 3255   1.817   3.095   2.619  1.1454  0.3680 -1.4193
 1086SOL     OW 3256   1.772   1.137   0.857  0.4784 -0.4985  0.0609
 1086SOL    HW1 3257   1.805   1.192   0.928  1.2968  0.0885 -0.7546
 1086SOL    HW2 3258   1.850   1.093   0.822  0.7697  1.9497 -2.8033
 1087SOL     OW 3259   1.309   2.107   0.589  0.5819  0.2362 -0.1305
 1087SOL    HW1 3260   1.248   2.138   0.522  0.8791  0.6848 -0.1997
 1087SOL    HW2 3261   1.260   2.040   0.637  1.1951 -1.9124 -2.3267
 1088SOL     OW 3262   2.544   1.777   0.308  0.1314 -0.1572  0.6843
 1088SOL    HW1 3263   2.547   1.834   0.231 -1.4548 -1.0325 -0.0555
 1088SOL    HW2 3264   2.460   1.733   0.303  0.5403 -1.2077  2.2454
 1089SOL     OW 3265   3.289   0.150   1.933 -0.1982  0.2914 -0.0337
 1089SOL    HW1 3266   3.343   0.154   1.854 -0.6877  1.7410 -0.3166
 1089SOL    HW2 3267   3.238   0.231   1.932 -1.1042 -0.2367  1.1413
 1090SOL     OW 3268   3.227   1.339   1.020  0.2152 -0.0071 -0.0263
 1090SOL    HW1 3269   3.229   1.246   1.041 -0.4904 -0.4291 -1.6769
 1090SOL    HW2 3270   3.319   1.367   1.022  0.4364 -0.7442  0.3958
 1091SOL     OW 3271   1.303   3.834   2.084  0.0257 -0.3656 -0.3607
 1091SOL    HW1 3272   1.225   3.888   2.081 -0.9017 -1.6956 -1.5802
 1091SOL    HW2 3273   1.283   3.767   2.150  0.2993 -0.4620 -0.3742
 1092SOL     OW 3274   0.076   2.869   2.917  0.6554  0.2649 -0.0442
 1092SOL    HW1 3275   0.054   2.953   2.877  2.4936  0.6620 -0.2881
 1092SOL    HW2 3276   0.111   2.892   3.003  1.3751 -0.2267 -0.2013
 1093SOL     OW 3277   2.564   1.643   2.429  0.3743  0.2647  0.4257
 1093SOL    HW1 3278   2.501   1.615   2.363 -0.1701 -1.0487  1.4498
 1093SOL    HW2 3279   2.512   1.650   2.510  1.2519  0.6362  0.9727
 1094SOL     OW 3280   0.171   3.666   0.108  0.9072  0.2251 -0.1174
 1094SOL    HW1 3281   0.222   3.585   0.110  2.3307  0.9638  4.1592
 1094SOL    HW2 3282   0.237   3.735   0.097  0.2615  0.9758  0.5624
 1095SOL     OW 3283   3.774   2.583   3.224 -0.4810  0.3678  0.4647
 1095SOL    HW1 3284   3.801   2.620   3.307  1.5920  0.5611 -0.2468
 1095SOL    HW2 3285   3.830   2.625   3.159 -0.5864 -1.2999 -0.7840
 1096SOL     OW 3286   2.748   1.679   3.044  0.2882  0.1236  0.7694
 1096SOL    HW1 3287   2.697   1.727   3.109  0.0907 -1.3851  1.7809
 1096SOL    HW2 3288   2.738   1.587   3.068  1.0580 -0.4176 -0.8001
 1097SOL     OW 3289   1.510   3.734   0.916  0.1599 -0.0546  0.2008
 1097SOL    HW1 3290   1.505   3.658   0.974 -1.3424 -0.1870 -0.0790
 1097SOL    HW2 3291   1.590   3.780   0.945  0.1294 -0.7832  1.5438
 1098SOL     OW 3292   3.280   3.329   2.546  0.4587 -0.5005 -0.0558
 1098SOL    HW1 3293   3.356   3.321   2.490  1.3978  0.8251  0.9580
 1098SOL    HW2 3294   3.259   3.239   2.572  2.0093 -0.8552  0.0491
 1099SOL     OW 3295   2.694   2.139   1.298  0.6745 -0.0370  0.0721
 1099SOL    HW1 3296   2.634   2.213   1.299 -1.3950 -1.6018 -1.3009
 1099SOL    HW2 3297   2.709   2.119   1.391  0.5823  1.5118  0.4474
 1100SOL     OW 3298   1.277   3.390   1.636 -0.1150  0.1840  0.7631
 1100SOL    HW1 3299   1.298   3.382   1.543 -0.1295  0.3162  0.7489
 1100SOL    HW2 3300   1.290   3.482   1.656 -3.2985  0.9001  0.1073
 1101SOL     OW 3301   0.738   2.189   1.376  0.0456 -0.2942  0.3587
 1101SOL    HW1 3302   0.696   2.253   1.319 -3.3601 -0.5888  2.2219
 1101SOL    HW2 3303   0.764   2.239   1.453 -2.5379 -0.9548  1.7777
 1102SOL     OW 3304   1.406   1.655   0.830 -0.0413  0.0088  0.4114
 1102SOL    HW1 3305   1.431   1.658   0.737 -1.9083 -0.0555 -0.1358
 1102SOL    HW2 3306   1.416   1.563   0.854 -1.7302 -0.4355 -0.4203
 1103SOL     OW 3307   1.272   2.076   3.614  0.3123 -0.1783 -0.0158
 1103SOL    HW1 3308   1.267   2.017   3.539  2.5548 -1.7557  0.9859
 1103SOL    HW2 3309   1.313   2.155   3.580 -0.1394 -0.2502 -0.7553
 1104SOL     OW 3310   1.469   2.621   2.040 -0.4762 -0.2170  0.4032
 1104SOL    HW1 3311   1.475   2.712   2.012  1.5442 -0.5629 -0.4486
 1104SOL    HW2 3312   1.526   2.573   1.980  0.2318 -1.7277  2.1624
 1105SOL     OW 3313   2.217   1.131   3.610  0.0370 -0.1344 -0.3950
 1105SOL    HW1 3314   2.138   1.104   3.564  0.6027 -2.3735 -0.1668
 1105SOL    HW2 3315   2.197   1.116   3.702  0.2332  0.6940 -0.2127
 1106SOL     OW 3316   1.432   2.932   0.081 -0.1496  0.0483  0.4540
 1106SOL    HW1 3317   1.423   2.882   0.162  5.4024 -1.0476  0.8297
 1106SOL    HW2 3318   1.453   3.020   0.110  0.5035 -0.0184  0.1991
 1107SOL     OW 3319   1.626   1.700   2.764 -0.3873 -0.7865 -0.0776
 1107SOL    HW1 3320   1.537   1.685   2.733 -1.1221 -3.0652  2.7399
 1107SOL    HW2 3321   1.616   1.758   2.840  0.4087 -1.6806  0.7328
 1108SOL     OW 3322   3.488   3.358   0.826  0.1361 -0.6847  0.7493
 1108SOL    HW1 3323   3.485   3.296   0.753  0.4612  0.5227 -0.3454
 1108SOL    HW2 3324   3.552   3.322   0.887  1.1970 -0.8507 -0.4297
 1109SOL     OW 3325   2.171   0.074   0.697 -0.4982 -0.1912  0.0513
 1109SOL    HW1 3326   2.119   0.147   0.732 -1.2647  0.2182 -1.8390
 1109SOL    HW2 3327   2.110   0.025   0.642  0.4965 -1.1824 -0.2088
 1110SOL     OW 3328   3.829   0.412   2.833  0.0686 -0.3206 -0.0150
 1110SOL    HW1 3329   3.795   0.323   2.820  0.6011 -0.5193 -0.0766
 1110SOL    HW2 3330   3.922   0.399   2.853 -0.0873  0.1619  1.0781
 1111SOL     OW 3331   3.510   1.915   0.062 -0.0204 -0.6289  0.1191
 1111SOL    HW1 3332   3.497   1.824   0.036 -0.1751 -0.9231  1.2187
 1111SOL    HW2 3333   3.585   1.913   0.121 -0.1314 -0.0616  0.2868
 1112SOL     OW 3334   3.493   2.250   2.770  0.9126  0.4092  0.1787
 1112SOL    HW1 3335   3.436   2.280   2.841  1.4872 -1.3598  1.4383
 1112SOL    HW2 3336   3.572   2.304   2.777  1.4905 -0.5839  1.7238
 1113SOL     OW 3337   0.661   0.272   3.913  0.1373  0.5055 -0.4663
 1113SOL    HW1 3338   0.568   0.279   3.892  0.3412  0.5630 -1.3681
 1113SOL    HW2 3339   0.669   0.188   3.960 -0.1685 -0.1126 -1.5016
 1114SOL     OW 3340   0.895   2.812   2.446  0.3990  0.1895  0.0648
 1114SOL    HW1 3341   0.954   2.737   2.435  1.3207  1.0660 -1.1986
 1114SOL    HW2 3342   0.914   2.844   2.534  1.0472 -0.1823  0.0667
 1115SOL     OW 3343   2.722   0.684   3.188 -0.7012  0.6945 -0.4550
 1115SOL    HW1 3344   2.709   0.688   3.093  2.9146 -0.7733 -1.1909
 1115SOL    HW2 3345   2.813   0.711   3.201 -0.4784 -1.0083  2.3648
 1116SOL     OW 3346   3.098   1.398   0.251 -0.2026 -0.1917 -0.2851
 1116SOL    HW1 3347   3.192   1.401   0.231 -0.5118  1.4744 -1.7154
 1116SOL    HW2 3348   3.087   1.461   0.322 -0.3562  0.3219 -0.7554
 1117SOL     OW 3349   1.504   1.458   1.113 -0.1829  0.5663  0.2629
 1117SOL    HW1 3350   1.490   1.553   1.106  1.5265  0.9105  1.0819
 1117SOL    HW2 3351   1.472   1.435   1.200 -0.6389  0.3739  0.0471
 1118SOL     OW 3352   2.707   3.851   1.621 -0.1797 -0.4386 -0.7483
 1118SOL    HW1 3353   2.749   3.937   1.613 -1.5890  0.4681  0.7580
 1118SOL    HW2 3354   2.682   3.827   1.532  1.1986  0.1838 -1.3272
 1119SOL     OW 3355   0.921   0.937   1.314 -0.5885 -0.3707  0.3635
 1119SOL    HW1 3356   0.938   0.913   1.405  2.7833 -2.2343 -0.5766
 1119SOL    HW2 3357   0.846   0.884   1.289  1.4132 -3.6808  0.8150
 1120SOL     OW 3358   0.780   2.514   1.438  0.5762 -0.3990 -0.2896
 1120SOL    HW1 3359   0.822   2.458   1.503 -0.2536  0.4386  1.0296
 1120SOL    HW2 3360   0.852   2.552   1.389  1.1676 -2.5409 -1.2069
 1121SOL     OW 3361   2.233   3.419   1.126 -0.3130 -0.1053  0.2297
 1121SOL    HW1 3362   2.218   3.500   1.077  0.9793  0.2909  0.4563
 1121SOL    HW2 3363   2.163   3.419   1.192  0.9666  2.0625  1.7426
 1122SOL     OW 3364   3.483   0.008   0.803  0.5755  0.5058  0.1909
 1122SOL    HW1 3365   3.560  -0.007   0.858 -0.5571  1.8761  2.2763
 1122SOL    HW2 3366   3.507   0.082   0.747 -0.0008  2.6903  2.6530
 1123SOL     OW 3367   3.516   0.054   2.770 -0.4430  0.6678 -0.4820
 1123SOL    HW1 3368   3.462   0.085   2.696 -1.3636 -0.4533 -0.3123
 1123SOL    HW2 3369   3.457  -0.004   2.819 -0.3611  2.5165  1.9981
 1124SOL     OW 3370   1.206   3.629   2.252 -0.2578 -1.0769 -0.1521
 1124SOL    HW1 3371   1.140   3.565   2.281 -1.9382  0.8761  0.6389
 1124SOL    HW2 3372   1.221   3.684   2.329 -3.1912  2.9337 -2.0860
 1125SOL     OW 3373   3.950   2.109   3.763  0.0954 -0.4778  0.2375
 1125SOL    HW1 3374   3.926   2.200   3.747 -2.3073 -0.4187  3.3684
 1125SOL    HW2 3375   3.919   2.062   3.686 -1.5074  0.9515 -0.0338
 1126SOL     OW 3376   2.777   1.712   3.979 -0.0024  0.0590 -0.3565
 1126SOL    HW1 3377   2.794   1.766   3.902 -0.1715  0.0729 -0.3836
 1126SOL    HW2 3378   2.699   1.661   3.956 -0.9350  1.1239  0.3588
 1127SOL     OW 3379   3.703   2.302   2.148  0.1973 -0.0508  0.0863
 1127SOL    HW1 3380   3.704   2.368   2.080  0.3930 -0.6564 -0.5054
 1127SOL    HW2 3381   3.794   2.291   2.174  0.1175  0.2274  0.5029
 1128SOL     OW 3382   0.700   1.904   2.421 -0.6158  0.1165  0.2543
 1128SOL    HW1 3383   0.616   1.871   2.390 -1.1620  0.6236  1.1606
 1128SOL    HW2 3384   0.739   1.830   2.469 -0.2678 -0.3015 -0.6337
 1129SOL     OW 3385   0.795   1.271   0.111 -0.4940 -0.1356  0.1027
 1129SOL    HW1 3386   0.792   1.177   0.129 -1.1093 -0.2410 -0.4829
 1129SOL    HW2 3387   0.859   1.280   0.041  0.1470 -0.0211  0.7045
 1130SOL     OW 3388   3.665   0.500   3.776 -0.3975  0.4042 -0.8241
 1130SOL    HW1 3389   3.718   0.426   3.747  1.0743  1.3275 -0.5774
 1130SOL    HW2 3390   3.642   0.546   3.695 -2.8829 -1.2606 -1.1755
 1131SOL     OW 3391   1.617   1.163   3.296  0.0452 -0.3535 -0.5050
 1131SOL    HW1 3392   1.696   1.145   3.245  0.5554 -0.3390  0.2744
 1131SOL    HW2 3393   1.612   1.258   3.299 -0.3537 -0.3495 -1.0794
 1132SOL     OW 3394   3.885   0.461   0.450 -0.2563  0.6911  0.2244
 1132SOL    HW1 3395   3.865   0.554   0.441  2.4186  1.2960 -0.3668
 1132SOL    HW2 3396   3.921   0.452   0.539  3.5252  1.2146 -1.0667
 1133SOL     OW 3397   3.672   3.826   1.675  0.0491 -0.4455 -0.2930
 1133SOL    HW1 3398   3.596   3.790   1.631 -1.9722  2.7529  0.2856
 1133SOL    HW2 3399   3.676   3.779   1.758  0.2729 -2.3395 -1.3240
 1134SOL     OW 3400   3.883   2.415   0.056 -0.2439 -0.6171  0.4752
 1134SOL    HW1 3401   3.930   2.397  -0.025  0.7526 -0.7086  1.0539
 1134SOL    HW2 3402   3.839   2.332   0.077 -0.0104 -0.7735  0.3507
 1135SOL     OW 3403   3.987   1.499   3.425  0.0279 -0.6908 -0.3696
 1135SOL    HW1 3404   3.973   1.430   3.360 -1.0217  0.2702 -1.1935
 1135SOL    HW2 3405   3.907   1.551   3.423 -1.0186 -1.8395  3.2701
 1136SOL     OW 3406   0.332   3.746   0.435 -0.2702 -0.3462 -0.2455
 1136SOL    HW1 3407   0.392   3.738   0.361  0.7352  1.3485  0.3300
 1136SOL    HW2 3408   0.388   3.763   0.510 -1.4519  1.2296  0.3333
 1137SOL     OW 3409   0.481   0.595   0.944  0.1810  0.7221 -0.3561
 1137SOL    HW1 3410   0.493   0.643   1.026 -0.7842  1.2171 -0.4870
 1137SOL    HW2 3411   0.462   0.505   0.972 -1.5460  1.1688  0.0573
 1138SOL     OW 3412   2.510   1.815   3.236 -0.1784 -0.9139 -0.5952
 1138SOL    HW1 3413   2.429   1.816   3.186  0.5756 -0.2957 -1.8348
 1138SOL    HW2 3414   2.482   1.828   3.327 -1.5253 -1.6001 -0.8897
 1139SOL     OW 3415   1.681   1.732   1.628 -0.0156  0.5526  0.2283
 1139SOL    HW1 3416   1.695   1.743   1.534 -3.1730 -0.6248 -0.4763
 1139SOL    HW2 3417   1.699   1.640   1.645  1.6584  0.9881  1.0885
 1140SOL     OW 3418   1.593   2.497   1.841 -0.1687 -0.3443  0.1315
 1140SOL    HW1 3419   1.679   2.501   1.799  0.3710 -1.6437  1.0254
 1140SOL    HW2 3420   1.549   2.424   1.796 -0.4640 -0.2501  0.2720
 1141SOL     OW 3421   3.857   3.310   3.515 -0.5254  0.0684 -0.0638
 1141SOL    HW1 3422   3.867   3.286   3.607  1.5990  2.7680  0.5411
 1141SOL    HW2 3423   3.783   3.370   3.515  0.5573  1.4533  0.2582
 1142SOL     OW 3424   0.134   3.720   3.780 -0.3077 -0.0753 -0.1425
 1142SOL    HW1 3425   0.170   3.699   3.866 -1.6883  2.4102  1.1505
 1142SOL    HW2 3426   0.163   3.648   3.724  4.2464  0.2923  1.3132
 1143SOL     OW 3427   3.787   2.917   0.234  0.3947  0.2270 -0.6609
 1143SOL    HW1 3428   3.747   2.844   0.187 -0.7720  1.2557 -1.3190
 1143SOL    HW2 3429   3.870   2.932   0.188  0.5488 -0.5464 -0.6438
 1144SOL     OW 3430   1.011   2.110   1.761 -0.0353  0.2053  0.9047
 1144SOL    HW1 3431   1.038   2.134   1.850  3.3056 -1.1449  0.3830
 1144SOL    HW2 3432   1.087   2.066   1.723 -2.2560 -1.7317 -1.7347
 1145SOL     OW 3433   1.557   1.035   2.919  0.5626 -0.3458  0.2171
 1145SOL    HW1 3434   1.556   1.126   2.890  4.1410  0.2600  1.4408
 1145SOL    HW2 3435   1.512   1.035   3.003  0.1390  0.2062 -0.0098
 1146SOL     OW 3436   3.474   3.666   0.587 -0.0054 -0.2692 -0.4227
 1146SOL    HW1 3437   3.490   3.583   0.541 -0.4185 -0.1184 -0.8586
 1146SOL    HW2 3438   3.448   3.640   0.675  1.7293 -0.5388  0.0460
 1147SOL     OW 3439   0.457   3.853   1.284  0.2985  0.5846 -0.2910
 1147SOL    HW1 3440   0.501   3.778   1.323 -2.2768 -0.5160  0.7219
 1147SOL    HW2 3441   0.499   3.929   1.324  0.1495 -0.4461  1.9403
 1148SOL     OW 3442   3.921   2.801   2.280 -0.3159 -0.7289 -0.0921
 1148SOL    HW1 3443   3.907   2.811   2.186  0.2497  2.9656  0.0609
 1148SOL    HW2 3444   3.833   2.794   2.317 -0.7042  0.4564 -0.7340
 1149SOL     OW 3445   1.500   2.221   1.959 -0.6386 -0.3661  0.7228
 1149SOL    HW1 3446   1.424   2.264   1.998 -1.2529 -0.8546  0.0922
 1149SOL    HW2 3447   1.500   2.250   1.868 -0.4322 -0.8540  0.5622
 1150SOL     OW 3448   3.717   2.947   1.409 -0.0408  0.6203 -0.5190
 1150SOL    HW1 3449   3.715   3.034   1.450  1.1935  0.4119  0.0333
 1150SOL    HW2 3450   3.810   2.927   1.402 -0.2627  0.0442 -2.1679
 1151SOL     OW 3451   2.140   1.044   1.053  0.3049 -0.1519 -0.1336
 1151SOL    HW1 3452   2.064   1.015   1.002  0.8662 -0.3569 -0.8716
 1151SOL    HW2 3453   2.190   0.964   1.071  0.1960 -0.0618  0.6194
 1152SOL     OW 3454   0.782   3.871   1.527  0.0943  0.0057  0.1295
 1152SOL    HW1 3455   0.747   3.853   1.614 -2.0419 -1.6777 -0.9784
 1152SOL    HW2 3456   0.832   3.792   1.504  1.0676  0.6422  0.0078
 1153SOL     OW 3457   0.294   0.750   2.123  0.1279  0.3120 -0.4864
 1153SOL    HW1 3458   0.211   0.707   2.101 -0.0183  0.4367 -0.1815
 1153SOL    HW2 3459   0.293   0.758   2.218  0.7157 -0.1275 -0.4390
 1154SOL     OW 3460   2.343   2.922   3.321 -0.2826 -0.0732 -0.4528
 1154SOL    HW1 3461   2.309   2.967   3.244  0.6172 -0.4475 -1.0855
 1154SOL    HW2 3462   2.405   2.983   3.360  2.2468 -1.3313 -2.2851
 1155SOL     OW 3463   1.336   0.591   0.389  0.2769  0.4670  0.2656
 1155SOL    HW1 3464   1.332   0.523   0.322  0.8869  1.6859 -1.0575
 1155SOL    HW2 3465   1.418   0.575   0.436  1.0988  1.0688 -0.9313
 1156SOL     OW 3466   1.540   1.528   0.392  0.1842  0.2935  0.8147
 1156SOL    HW1 3467   1.444   1.538   0.388  0.2227  0.5592  0.5048
 1156SOL    HW2 3468   1.572   1.576   0.316  0.5729  0.2638  0.9582
 1157SOL     OW 3469   0.646   1.063   3.277 -0.0777  0.0502 -0.3772
 1157SOL    HW1 3470   0.741   1.055   3.284 -0.3259 -1.4877  2.9410
 1157SOL    HW2 3471   0.624   1.016   3.196  1.9639  1.0627 -1.6117
 1158SOL     OW 3472   1.979   0.043   3.146  0.3409  0.2593 -0.8184
 1158SOL    HW1 3473   1.915   0.014   3.081 -1.3092  2.1538 -0.1351
 1158SOL    HW2 3474   1.983  -0.029   3.209 -3.3694  1.1479  0.6707
 1159SOL     OW 3475   3.414   2.839   1.987  0.4377 -0.3577  1.0364
 1159SOL    HW1 3476   3.340   2.889   1.954  0.0568 -0.8861  1.0620
 1159SOL    HW2 3477   3.375   2.782   2.054  1.1527  0.5577  2.2614
 1160SOL     OW 3478   3.364   3.300   0.066 -0.5830  0.1307  0.0204
 1160SOL    HW1 3479   3.310   3.318  -0.011  0.8796  0.7258 -0.8917
 1160SOL    HW2 3480   3.415   3.379   0.079 -0.4039 -0.1746  1.2794
 1161SOL     OW 3481   2.612   1.197   3.746 -0.0425  0.6466  0.3361
 1161SOL    HW1 3482   2.552   1.139   3.700  0.1257 -0.1455  1.0944
 1161SOL    HW2 3483   2.698   1.157   3.735 -0.1130 -0.1019  2.1056
 1162SOL     OW 3484   1.764   1.301   1.396 -0.2737  0.2295  0.0130
 1162SOL    HW1 3485   1.765   1.222   1.343  1.2445 -0.4447  0.9580
 1162SOL    HW2 3486   1.682   1.297   1.445 -0.1810 -0.7881  0.0909
 1163SOL     OW 3487   0.655   3.306   0.449  0.1358 -0.2874 -0.1816
 1163SOL    HW1 3488   0.739   3.272   0.479  0.7919  0.0694 -1.5474
 1163SOL    HW2 3489   0.662   3.308   0.354 -1.4941 -0.4291 -0.3461
 1164SOL     OW 3490   3.190   2.342   1.830  0.4807  0.2928 -0.2335
 1164SOL    HW1 3491   3.168   2.266   1.884 -2.2489  1.1453  0.0201
 1164SOL    HW2 3492   3.238   2.400   1.888 -0.1506  0.0846  0.5154
 1165SOL     OW 3493   3.151   0.247   0.139 -0.0163  0.1006 -0.0810
 1165SOL    HW1 3494   3.131   0.328   0.093 -0.8476  0.0209  0.1223
 1165SOL    HW2 3495   3.152   0.271   0.232  1.0348  0.1362 -0.0945
 1166SOL     OW 3496   1.420   2.291   1.702  0.2566 -0.3166  0.1713
 1166SOL    HW1 3497   1.353   2.223   1.692  1.7252 -1.8319  0.0504
 1166SOL    HW2 3498   1.474   2.283   1.623  1.1814  0.1466  0.7420
 1167SOL     OW 3499   0.190   1.672   3.358  0.2337 -0.3304  0.1436
 1167SOL    HW1 3500   0.114   1.618   3.379 -0.9261  1.3940  0.6350
 1167SOL    HW2 3501   0.159   1.731   3.289  0.1949  2.2135  2.1805
 1168SOL     OW 3502   2.750   0.741   1.302  0.2274 -0.5999 -0.1244
 1168SOL    HW1 3503   2.785   0.824   1.270  1.9117 -2.2449 -2.9113
 1168SOL    HW2 3504   2.795   0.727   1.386  0.9725  0.6080 -0.2950
 1169SOL     OW 3505   1.422   0.901   0.297  0.0889  0.7287 -0.1770
 1169SOL    HW1 3506   1.429   0.807   0.309  0.1709  0.8467  0.7484
 1169SOL    HW2 3507   1.411   0.912   0.203  0.8568 -0.1496 -0.3836
 1170SOL     OW 3508   2.224   3.205   1.916  0.6175 -0.3057  0.1139
 1170SOL    HW1 3509   2.315   3.183   1.937  0.3682 -0.9814  0.4861
 1170SOL    HW2 3510   2.172   3.158   1.980  0.0246  0.6084  0.3244
 1171SOL     OW 3511   2.937   3.024   0.361 -0.2663 -0.4789  0.4876
 1171SOL    HW1 3512   2.977   2.962   0.300 -1.7986 -0.9296 -0.0818
 1171SOL    HW2 3513   3.010   3.054   0.416  0.8964 -1.0461 -0.7119
 1172SOL     OW 3514   2.340   3.897   0.905  0.1093  0.2703 -0.5799
 1172SOL    HW1 3515   2.421   3.942   0.929 -0.5574  0.9225  0.5493
 1172SOL    HW2 3516   2.281   3.968   0.879 -0.5281 -0.0606 -0.0657
 1173SOL     OW 3517   2.315   0.538   2.197 -0.2299 -0.4965  0.0773
 1173SOL    HW1 3518   2.389   0.489   2.160  0.5786  0.4363  0.4295
 1173SOL    HW2 3519   2.302   0.611   2.137 -0.5316 -0.3623  0.3058
 1174SOL     OW 3520   2.453   2.829   2.699  0.0154 -0.1105  0.3038
 1174SOL    HW1 3521   2.478   2.829   2.792  1.3448  0.7650 -0.0288
 1174SOL    HW2 3522   2.402   2.909   2.687  0.8278  0.3834  0.0523
 1175SOL     OW 3523   0.067   1.431   2.228 -0.4401 -0.0956 -0.0995
 1175SOL    HW1 3524   0.130   1.503   2.234  0.2749 -0.7963  1.0205
 1175SOL    HW2 3525   0.057   1.417   2.133 -0.1145  1.0504 -0.3211
 1176SOL     OW 3526   0.325   3.486   0.374 -0.1079 -0.0342 -0.1276
 1176SOL    HW1 3527   0.317   3.574   0.411  2.3452  1.4326 -2.7313
 1176SOL    HW2 3528   0.374   3.437   0.440 -0.2655  0.9588  0.7532
 1177SOL     OW 3529   0.137   1.064   0.461  1.0038  0.0234 -0.3965
 1177SOL    HW1 3530   0.215   1.050   0.515 -0.2255  0.5139  1.6303
 1177SOL    HW2 3531   0.171   1.089   0.375  3.0651 -0.9559  0.0741
 1178SOL     OW 3532   3.899   3.203   3.271 -0.4406  0.0108 -0.6547
 1178SOL    HW1 3533   3.862   3.264   3.206 -0.9368 -1.8142 -2.1866
 1178SOL    HW2 3534   3.861   3.231   3.354 -0.9305  1.5640 -1.3603
 1179SOL     OW 3535   1.556   3.519   1.080  0.3388 -0.2374 -0.4351
 1179SOL    HW1 3536   1.586   3.553   1.165  0.2020 -0.3906 -0.3260
 1179SOL    HW2 3537   1.632   3.529   1.022  0.6344 -0.7141 -0.1359
 1180SOL     OW 3538   1.810   0.449   3.834  0.0420 -0.7780  0.0882
 1180SOL    HW1 3539   1.742   0.508   3.802 -1.6456 -2.6386  0.0773
 1180SOL    HW2 3540   1.877   0.507   3.870 -0.1565  1.2207 -2.5179
 1181SOL     OW 3541   2.510   0.416   0.571  0.4586 -1.1210  0.5959
 1181SOL    HW1 3542   2.560   0.368   0.505 -2.3412 -1.2777 -1.6328
 1181SOL    HW2 3543   2.453   0.349   0.610  0.8643 -0.6958  1.9559
 1182SOL     OW 3544   0.283   1.202   3.425 -0.5074 -0.0694  0.8103
 1182SOL    HW1 3545   0.326   1.258   3.489 -0.6807 -0.6017  1.3964
 1182SOL    HW2 3546   0.342   1.127   3.415  1.0341  1.3062 -1.8648
 1183SOL     OW 3547   0.650   3.118   0.662  0.7137 -0.0634  0.0522
 1183SOL    HW1 3548   0.743   3.110   0.644  0.4958 -0.3966 -0.9879
 1183SOL    HW2 3549   0.635   3.212   0.670  1.0723  0.0157 -0.1895
 1184SOL     OW 3550   0.393   3.638   1.916 -0.7159  0.2316  0.0787
 1184SOL    HW1 3551   0.479   3.681   1.918 -0.8889  0.7057 -1.5425
 1184SOL    HW2 3552   0.400   3.567   1.979  1.1729 -0.2970 -0.6729
 1185SOL     OW 3553   1.403   3.036   1.644 -0.0889 -0.2796 -0.0954
 1185SOL    HW1 3554   1.344   3.049   1.570 -2.4079 -0.8768  1.5396
 1185SOL    HW2 3555   1.400   3.118   1.692 -0.2927 -0.6094  0.4658
 1186SOL     OW 3556   1.053   3.905   0.826 -0.5629 -0.3576  0.4654
 1186SOL    HW1 3557   1.125   3.913   0.889  0.1453  0.5160 -0.4314
 1186SOL    HW2 3558   1.003   3.829   0.857 -0.4244  0.2353  2.2604
 1187SOL     OW 3559   3.885   3.259   0.775  0.1189  0.8010  0.1972
 1187SOL    HW1 3560   3.844   3.324   0.718 -0.4132 -1.4923 -2.2673
 1187SOL    HW2 3561   3.812   3.216   0.818  0.2651  0.1483 -0.1940
 1188SOL     OW 3562   3.301   1.853   3.343  0.4433  0.0155  0.0369
 1188SOL    HW1 3563   3.331   1.806   3.265 -2.3994 -0.2817 -0.9976
 1188SOL    HW2 3564   3.235   1.915   3.310 -0.4307  0.2764  2.1110
 1189SOL     OW 3565   3.643   2.296   3.589 -0.7490  0.1442 -0.2737
 1189SOL    HW1 3566   3.715   2.342   3.545 -1.1804 -0.0445 -1.2044
 1189SOL    HW2 3567   3.646   2.328   3.679 -0.4377  1.2711 -0.6618
 1190SOL     OW 3568   1.382   0.440   0.970  0.5035 -0.1807  0.4667
 1190SOL    HW1 3569   1.323   0.495   1.022  0.0324 -0.3108  0.0784
 1190SOL    HW2 3570   1.330   0.362   0.949 -0.5482  1.2150 -2.9408
 1191SOL     OW 3571   2.683   2.317   0.664  0.1792  0.1771  0.5558
 1191SOL    HW1 3572   2.683   2.230   0.704  1.3462 -0.7172 -1.2502
 1191SOL    HW2 3573   2.705   2.301   0.572  0.3647  2.3868  0.1650
 1192SOL     OW 3574   1.598   0.128   3.274 -0.4181  0.1813  0.0565
 1192SOL    HW1 3575   1.658   0.155   3.344 -1.0054 -2.0806  1.5234
 1192SOL    HW2 3576   1.632   0.043   3.244 -1.6804 -0.1270 -0.5684
 1193SOL     OW 3577   1.789   3.726   2.702  0.2733 -0.0972 -0.1500
 1193SOL    HW1 3578   1.842   3.805   2.712  1.2546 -0.4642 -1.8369
 1193SOL    HW2 3579   1.854   3.655   2.701 -0.2626 -0.6083 -1.7387
 1194SOL     OW 3580   3.241   3.020   1.157 -0.1328  0.2491 -0.1567
 1194SOL    HW1 3581   3.246   2.984   1.245  0.7894 -1.5991 -0.9041
 1194SOL    HW2 3582   3.318   3.077   1.150  0.3372 -0.3506 -0.0468
 1195SOL     OW 3583   0.954   2.616   1.104  0.5205 -0.1886 -0.5047
 1195SOL    HW1 3584   0.954   2.699   1.151  2.2323  0.1777 -1.0635
 1195SOL    HW2 3585   0.990   2.553   1.168 -0.6554 -0.5069 -0.1243
 1196SOL     OW 3586   0.454   3.168   2.201  0.4932 -0.1464 -0.3411
 1196SOL    HW1 3587   0.544   3.139   2.196  0.5441 -0.3350  1.2479
 1196SOL    HW2 3588   0.402   3.096   2.165  0.8451 -0.8583  0.5648
 1197SOL     OW 3589   1.288   1.889   0.127 -0.0378 -0.5858 -0.5437
 1197SOL    HW1 3590   1.254   1.803   0.102  2.1173 -1.8585  0.6475
 1197SOL    HW2 3591   1.347   1.913   0.055  1.6802 -1.5511  0.4942
 1198SOL     OW 3592   0.600   3.552   2.478  0.2843 -0.6294 -0.4728
 1198SOL    HW1 3593   0.596   3.636   2.522  2.2047  0.9087 -2.9578
 1198SOL    HW2 3594   0.655   3.497   2.534 -1.1976 -0.3728  1.2912
 1199SOL     OW 3595   0.738   1.303   0.733  0.5619  0.0460 -0.0297
 1199SOL    HW1 3596   0.766   1.262   0.815 -1.1918  0.4960  0.8224
 1199SOL    HW2 3597   0.736   1.397   0.753 -0.8096  0.0791 -0.2847
 1200SOL     OW 3598   3.164   1.182   1.758 -0.1289  0.2679  0.4143
 1200SOL    HW1 3599   3.128   1.242   1.825  0.0208  1.6175 -0.6720
 1200SOL    HW2 3600   3.257   1.177   1.778  0.0757  1.3747 -0.1876
 1201SOL     OW 3601   1.099   2.426   2.695  0.7480  0.1646 -0.6292
 1201SOL    HW1 3602   1.117   2.499   2.755  1.5265 -0.7962  0.3605
 1201SOL    HW2 3603   1.080   2.468   2.611 -0.2467  1.5474  0.2417
 1202SOL     OW 3604   2.950   2.560   3.682  0.0906  0.2532 -0.0919
 1202SOL    HW1 3605   2.999   2.492   3.636  1.8527  2.5610 -1.8621
 1202SOL    HW2 3606   2.862   2.556   3.644 -0.4307 -2.1045  1.1336
 1203SOL     OW 3607   1.379   0.278   2.791  0.2088  0.2381  0.1290
 1203SOL    HW1 3608   1.396   0.211   2.724  1.2469  1.8929 -1.3575
 1203SOL    HW2 3609   1.332   0.347   2.745 -0.2293  0.8518  1.4534
 1204SOL     OW 3610   2.990   1.007   2.027 -0.1307  0.2221 -0.1214
 1204SOL    HW1 3611   2.943   1.087   2.002 -1.0890 -0.2159  0.2265
 1204SOL    HW2 3612   3.072   1.039   2.064 -1.3702  1.1941  1.9931
 1205SOL     OW 3613   1.496   1.293   1.490 -0.1449 -0.0309 -0.3612
 1205SOL    HW1 3614   1.430   1.264   1.553 -1.4207  0.2995 -1.4958
 1205SOL    HW2 3615   1.491   1.388   1.493 -0.5388 -0.0142 -1.2600
 1206SOL     OW 3616   2.793   3.994   2.080 -0.0397  0.0258  0.2746
 1206SOL    HW1 3617   2.791   3.918   2.138 -1.2658 -0.1655  0.0121
 1206SOL    HW2 3618   2.886   4.005   2.058  0.6833  0.9221  3.2893
 1207SOL     OW 3619   0.549   1.096   3.945 -0.3271 -0.3935  0.1744
 1207SOL    HW1 3620   0.554   1.128   4.035 -1.2815  0.8443 -0.1850
 1207SOL    HW2 3621   0.476   1.033   3.946 -0.5751 -0.1096  0.1996
 1208SOL     OW 3622   0.160   1.782   0.119 -0.3343  0.1714 -0.4362
 1208SOL    HW1 3623   0.155   1.821   0.207  0.6537  0.0232 -0.2981
 1208SOL    HW2 3624   0.252   1.757   0.110 -0.1068  1.4651 -2.0690
 1209SOL     OW 3625   2.316   2.057   0.392 -0.7289 -0.2507  0.3706
 1209SOL    HW1 3626   2.313   2.038   0.486 -1.4378 -0.6865  0.2686
 1209SOL    HW2 3627   2.275   2.143   0.383  1.3780  0.8750  0.6930
 1210SOL     OW 3628   3.111   1.680   2.730  0.2742 -0.1411  0.2813
 1210SOL    HW1 3629   3.023   1.643   2.728 -0.5373  1.6907 -0.2633
 1210SOL    HW2 3630   3.123   1.707   2.821  0.6598 -1.2149  0.5612
 1211SOL     OW 3631   0.892   2.852   3.182 -0.1650  0.7766  0.1093
 1211SOL    HW1 3632   0.847   2.795   3.244  2.2737 -1.1599  0.2708
 1211SOL    HW2 3633   0.912   2.931   3.231  0.6388 -0.2263  1.4653
 1212SOL     OW 3634   3.141   3.550   3.834  0.5520 -0.1309  0.0509
 1212SOL    HW1 3635   3.135   3.640   3.802  1.3161 -0.5252 -1.2414
 1212SOL    HW2 3636   3.188   3.558   3.917 -1.1069  0.8551  0.9566
 1213SOL     OW 3637   3.473   2.445   1.402 -0.5376 -0.2618  0.7439
 1213SOL    HW1 3638   3.407   2.512   1.385 -0.4381 -0.4135 -0.3280
 1213SOL    HW2 3639   3.465   2.384   1.328  2.1264  0.7796 -0.5499
 1214SOL     OW 3640   3.238   3.428   1.236 -0.1132 -0.1928  0.2695
 1214SOL    HW1 3641   3.250   3.363   1.166  1.4253 -0.2294  0.5372
 1214SOL    HW2 3642   3.292   3.502   1.209  0.4703 -0.1981  1.4014
 1215SOL     OW 3643   2.590   0.674   0.321 -0.1732  0.1751 -0.1626
 1215SOL    HW1 3644   2.612   0.768   0.321  1.8348 -0.2464  0.4188
 1215SOL    HW2 3645   2.668   0.631   0.355 -1.6554 -1.5931  1.2879
 1216SOL     OW 3646   1.455   3.439   1.419  0.3325 -0.2556  0.4854
 1216SOL    HW1 3647   1.501   3.523   1.414  2.9065 -1.6005 -1.2182
 1216SOL    HW2 3648   1.521   3.378   1.454 -1.6112 -1.5387  2.1704
 1217SOL     OW 3649   2.336   3.083   0.472  0.4959 -0.2427  0.3751
 1217SOL    HW1 3650   2.379   3.007   0.509  0.8015 -2.3374 -3.6652
 1217SOL    HW2 3651   2.404   3.150   0.466  0.6625 -0.1841  2.4093
 1218SOL     OW 3652   1.572   2.110   0.435  0.4898  0.1035 -0.8464
 1218SOL    HW1 3653   1.476   2.111   0.431  0.5010  1.2457 -1.3363
 1218SOL    HW2 3654   1.597   2.025   0.399 -0.4137 -2.0691  3.0381
 1219SOL     OW 3655   2.156   1.502   2.175  0.4797 -0.3354  0.2962
 1219SOL    HW1 3656   2.160   1.447   2.096 -0.4918 -1.2992  0.8949
 1219SOL    HW2 3657   2.092   1.459   2.231  0.6799  0.6984  1.3541
 1220SOL     OW 3658   3.131   1.266   2.570 -0.1188  0.0608 -0.1300
 1220SOL    HW1 3659   3.220   1.287   2.601 -0.3855  0.1943  0.5666
 1220SOL    HW2 3660   3.103   1.194   2.626 -1.3148  1.5013  1.2039
 1221SOL     OW 3661   3.798   0.194   0.476 -0.3133 -0.5143  0.3515
 1221SOL    HW1 3662   3.827   0.284   0.459 -0.4034 -0.0658  2.3014
 1221SOL    HW2 3663   3.823   0.145   0.398 -0.0113  1.1495 -0.6411
 1222SOL     OW 3664   2.575   2.146   0.311  0.5660 -0.7542 -0.8046
 1222SOL    HW1 3665   2.489   2.132   0.353  0.6432 -0.9693 -0.7178
 1222SOL    HW2 3666   2.574   2.239   0.287 -0.1216 -1.0030 -1.7860
 1223SOL     OW 3667   0.983   0.522   2.732 -1.0856  0.4251 -0.9521
 1223SOL    HW1 3668   0.938   0.487   2.809 -1.8269 -0.2462 -1.6778
 1223SOL    HW2 3669   0.912   0.557   2.677 -0.6821 -0.2090 -1.8860
 1224SOL     OW 3670   3.886   2.657   1.581 -0.0020 -0.1127  0.6563
 1224SOL    HW1 3671   3.947   2.719   1.542 -0.4800 -0.0116  0.0569
 1224SOL    HW2 3672   3.909   2.656   1.674  0.1087  0.8389  0.6481
 1225SOL     OW 3673   0.326   0.654   3.120  0.2532 -0.0116  0.8760
 1225SOL    HW1 3674   0.351   0.613   3.203  1.0189  0.8439  1.0923
 1225SOL    HW2 3675   0.410   0.677   3.079 -0.1381  0.4309  0.3099
 1226SOL     OW 3676   0.003   1.818   2.932  0.3981  0.0993 -0.0821
 1226SOL    HW1 3677   0.071   1.877   2.963  2.4807 -0.9896 -2.2400
 1226SOL    HW2 3678  -0.040   1.866   2.861  0.7796 -0.2304 -0.5414
 1227SOL     OW 3679   3.814   0.658   2.731  0.0259 -0.8898  0.6721
 1227SOL    HW1 3680   3.848   0.590   2.788 -3.2843 -3.0737  0.3011
 1227SOL    HW2 3681   3.735   0.690   2.775 -2.2212 -2.1129 -2.1658
 1228SOL     OW 3682   1.746   1.790   3.332  0.4731 -0.3011 -0.2205
 1228SOL    HW1 3683   1.745   1.762   3.241  0.1076 -0.8310 -0.0599
 1228SOL    HW2 3684   1.735   1.885   3.328 -1.3096 -0.4897 -0.6836
 1229SOL     OW 3685   1.307   2.399   2.951 -0.0412 -0.3628  0.1826
 1229SOL    HW1 3686   1.230   2.359   2.910 -0.1364 -1.4758  1.3981
 1229SOL    HW2 3687   1.323   2.478   2.900 -1.0367 -0.9437 -1.0697
 1230SOL     OW 3688   2.278   0.360   1.006 -0.2521  0.6299  0.2826
 1230SOL    HW1 3689   2.305   0.445   0.971 -0.1366 -0.6260 -3.0680
 1230SOL    HW2 3690   2.191   0.345   0.969  0.9021 -1.9055 -1.7558
 1231SOL     OW 3691   0.798   1.691   0.713  0.0147 -0.9606  0.5807
 1231SOL    HW1 3692   0.811   1.774   0.759  1.4233  0.5149 -2.2170
 1231SOL    HW2 3693   0.873   1.637   0.740  0.5761 -0.2975  0.3700
 1232SOL     OW 3694   2.305   0.954   0.084  0.2521 -0.0113  0.8285
 1232SOL    HW1 3695   2.325   0.864   0.057  0.6978  0.1540  0.5800
 1232SOL    HW2 3696   2.256   0.991   0.011  2.5832  0.8491 -0.4412
 1233SOL     OW 3697   1.233   0.675   1.659 -0.3881  0.8038  0.0274
 1233SOL    HW1 3698   1.314   0.689   1.610  1.1099 -0.5238  1.9830
 1233SOL    HW2 3699   1.255   0.610   1.725 -3.3708 -0.4695 -0.0391
 1234SOL     OW 3700   1.895   1.544   0.950 -0.6737 -0.1241  0.1876
 1234SOL    HW1 3701   1.818   1.499   0.916 -0.0177 -0.4179 -0.9323
 1234SOL    HW2 3702   1.909   1.617   0.889 -0.0754 -0.0619  0.3939
 1235SOL     OW 3703   2.108   0.774   0.528  0.2937 -0.1609 -0.0607
 1235SOL    HW1 3704   2.131   0.866   0.539  0.3905 -0.2395  0.4393
 1235SOL    HW2 3705   2.181   0.737   0.479  0.4438 -0.0549  0.0821
 1236SOL     OW 3706   1.986   0.603   3.432 -0.4012  0.1174  0.5698
 1236SOL    HW1 3707   2.005   0.575   3.342  1.4020  3.9804 -0.4761
 1236SOL    HW2 3708   1.891   0.610   3.436 -0.5422 -0.6847 -0.8407
 1237SOL     OW 3709   2.873   1.341   2.704  0.5353 -0.3182 -0.4200
 1237SOL    HW1 3710   2.837   1.353   2.792  0.2069  2.1507 -0.8170
 1237SOL    HW2 3711   2.961   1.307   2.718  0.8668  0.9992  0.9422
 1238SOL     OW 3712   1.945   2.183   3.133  0.1516  0.0574 -0.4621
 1238SOL    HW1 3713   2.021   2.177   3.191 -0.1163 -1.3282 -0.2344
 1238SOL    HW2 3714   1.870   2.183   3.193 -0.0533  1.1417 -0.7004
 1239SOL     OW 3715   2.233   2.997   2.992  0.4578  0.0867  0.6825
 1239SOL    HW1 3716   2.160   2.938   2.974  1.2012 -0.7001  0.1741
 1239SOL    HW2 3717   2.209   3.079   2.950  0.2987 -0.4682 -0.3336
 1240SOL     OW 3718   0.479   2.556   3.281 -0.0624  0.0444  0.1541
 1240SOL    HW1 3719   0.518   2.632   3.238 -0.2681  0.0474 -0.0313
 1240SOL    HW2 3720   0.487   2.574   3.374  0.0779  0.1973  0.1137
 1241SOL     OW 3721   0.043   2.843   1.457 -0.3385  0.3791 -0.1241
 1241SOL    HW1 3722   0.121   2.897   1.441  0.6275 -0.5459  1.2645
 1241SOL    HW2 3723   0.020   2.808   1.371  0.8504  0.5865 -0.5465
 1242SOL     OW 3724   3.020   0.661   2.215  0.3380  0.1843  0.7778
 1242SOL    HW1 3725   3.096   0.703   2.176  0.7704 -1.1588  0.1145
 1242SOL    HW2 3726   2.955   0.657   2.145 -0.7636  2.2113  1.6022
 1243SOL     OW 3727   3.550   0.751   2.817  0.9074  0.0851 -0.0797
 1243SOL    HW1 3728   3.527   0.810   2.745  0.9064  0.8901  0.5797
 1243SOL    HW2 3729   3.501   0.670   2.797 -0.4218  0.8681 -0.1006
 1244SOL     OW 3730   3.037   2.779   0.642  0.2075  0.3274  0.3163
 1244SOL    HW1 3731   2.963   2.722   0.659 -0.2662  1.3742  2.0718
 1244SOL    HW2 3732   3.089   2.776   0.723  1.8003  0.0689 -0.6539
 1245SOL     OW 3733   1.925   1.096   0.466 -0.4455  0.1180 -0.5429
 1245SOL    HW1 3734   1.834   1.128   0.462  0.0375  1.3879 -2.4077
 1245SOL    HW2 3735   1.971   1.162   0.517 -0.4726 -0.3544  0.1104
 1246SOL     OW 3736   0.063   1.345   3.641 -0.3845  0.1756  0.0018
 1246SOL    HW1 3737   0.147   1.304   3.661  0.3948  2.4694  1.9826
 1246SOL    HW2 3738   0.076   1.386   3.556  0.1724 -0.2956 -0.1461
 1247SOL     OW 3739   3.868   3.521   0.645  0.1147 -0.4806  1.2883
 1247SOL    HW1 3740   3.935   3.560   0.590 -1.3580  0.7696  0.2752
 1247SOL    HW2 3741   3.793   3.509   0.586 -1.3936  0.5604  2.9205
 1248SOL     OW 3742   3.708   1.451   2.825  0.1960 -0.2079 -0.0947
 1248SOL    HW1 3743   3.784   1.418   2.776  0.5782  0.2046  0.2170
 1248SOL    HW2 3744   3.691   1.384   2.891  0.7788  0.0698  0.3401
 1249SOL     OW 3745   0.518   0.167   1.119 -0.1030 -0.0526 -0.0213
 1249SOL    HW1 3746   0.540   0.138   1.030 -0.4072  0.4311 -0.2614
 1249SOL    HW2 3747   0.598   0.154   1.169 -0.4069 -1.9106  0.0551
 1250SOL     OW 3748   1.630   0.337   1.880 -0.4120 -0.4963  0.3027
 1250SOL    HW1 3749   1.646   0.419   1.833  0.5257 -0.6718  0.2884
 1250SOL    HW2 3750   1.709   0.325   1.933 -0.1765 -1.8071 -0.3254
 1251SOL     OW 3751   0.904   2.873   1.201  0.1366 -0.0289 -0.3285
 1251SOL    HW1 3752   0.876   2.945   1.258  0.0485 -0.9409  0.8296
 1251SOL    HW2 3753   0.828   2.815   1.197  0.8274 -1.0206  0.3816
 1252SOL     OW 3754   0.643   1.647   3.504 -0.6114  0.1391 -0.3387
 1252SOL    HW1 3755   0.580   1.706   3.462  0.0110  0.9934 -0.0913
 1252SOL    HW2 3756   0.706   1.627   3.436 -0.5636  0.1375 -0.2939
 1253SOL     OW 3757   2.769   1.470   2.377 -0.6084  0.9822 -0.1846
 1253SOL    HW1 3758   2.716   1.540   2.415  0.4479  2.0254 -0.5789
 1253SOL    HW2 3759   2.846   1.465   2.433 -0.0906  1.0082 -0.8804
 1254SOL     OW 3760   3.265   2.928   3.270  0.0775  0.1435  0.1865
 1254SOL    HW1 3761   3.357   2.938   3.248  0.2028 -0.6654  0.3058
 1254SOL    HW2 3762   3.237   2.851   3.221  0.4523 -1.9643  2.9851
 1255SOL     OW 3763   3.040   0.701   1.047 -0.2974  0.0027 -0.3592
 1255SOL    HW1 3764   2.953   0.722   1.011  0.4728 -0.1687 -2.4782
 1255SOL    HW2 3765   3.029   0.613   1.084 -1.4826  0.7525  1.2050
 1256SOL     OW 3766   2.311   0.029   1.941  0.3322 -0.5677  0.3159
 1256SOL    HW1 3767   2.399   0.057   1.915 -0.4789  0.1488 -1.9016
 1256SOL    HW2 3768   2.290   0.081   2.018  0.8327  1.2439 -0.7278
 1257SOL     OW 3769   3.855   0.262   0.957 -0.2629 -0.6413 -0.2481
 1257SOL    HW1 3770   3.786   0.202   0.985 -1.3535  0.2212 -0.9741
 1257SOL    HW2 3771   3.871   0.240   0.866 -0.0908 -0.3570 -0.2886
 1258SOL     OW 3772   1.000   1.342   3.948  0.2466 -0.4277 -0.7372
 1258SOL    HW1 3773   1.053   1.341   3.868  1.4235 -0.4120  0.0069
 1258SOL    HW2 3774   1.063   1.322   4.018 -1.0072 -1.7969  0.0468
 1259SOL     OW 3775   2.331   2.058   2.717 -0.4660 -0.5622  0.0696
 1259SOL    HW1 3776   2.274   2.135   2.718  1.8458  1.4342 -2.7642
 1259SOL    HW2 3777   2.275   1.987   2.686 -2.0606  0.5870  0.1577
 1260SOL     OW 3778   0.872   1.653   0.460 -0.5361  0.5099 -0.4013
 1260SOL    HW1 3779   0.859   1.562   0.433 -0.3380  0.6232 -0.8928
 1260SOL    HW2 3780   0.850   1.654   0.553  0.6172 -0.2911 -0.0970
 1261SOL     OW 3781   3.190   2.955   1.874 -0.1469 -0.0963 -0.2350
 1261SOL    HW1 3782   3.212   3.037   1.919 -3.1333  0.3160  0.7263
 1261SOL    HW2 3783   3.135   2.982   1.801  2.0316 -1.0441 -2.3659
 1262SOL     OW 3784   4.015   3.017   3.506 -0.3519  0.0899  0.1932
 1262SOL    HW1 3785   4.003   3.093   3.450 -1.6264 -0.3005 -0.1008
 1262SOL    HW2 3786   3.949   3.027   3.574 -2.5388 -2.1474 -1.4336
 1263SOL     OW 3787   1.854   3.119   2.299  0.0341 -0.6850 -0.1869
 1263SOL    HW1 3788   1.817   3.116   2.387  1.4183  2.0335  0.6076
 1263SOL    HW2 3789   1.807   3.051   2.250 -4.4047  0.9784  1.2578
 1264SOL     OW 3790   2.487   3.374   2.580  0.3680  0.3918  0.0511
 1264SOL    HW1 3791   2.467   3.427   2.657 -0.2184  0.0895  0.1142
 1264SOL    HW2 3792   2.558   3.316   2.609  0.2019  0.3315  0.3443
 1265SOL     OW 3793   2.352   3.571   3.842 -0.0668  0.3657 -0.4703
 1265SOL    HW1 3794   2.261   3.576   3.872 -0.0982 -1.9362  0.0022
 1265SOL    HW2 3795   2.403   3.576   3.923  0.2124  0.9148 -0.6748
 1266SOL     OW 3796   2.015   2.092   3.424  0.2506  0.3133  0.2399
 1266SOL    HW1 3797   2.021   2.026   3.492  0.7311  1.6485  1.5497
 1266SOL    HW2 3798   2.102   2.134   3.423  0.5507 -0.2351 -1.8098
 1267SOL     OW 3799   0.023   3.528   1.162  0.1027  0.1177 -0.5383
 1267SOL    HW1 3800   0.041   3.622   1.165  2.0526 -0.1264 -2.2632
 1267SOL    HW2 3801   0.049   3.496   1.248  0.6782  0.9944 -0.3691
 1268SOL     OW 3802   0.744   1.136   3.001 -0.2039  0.4409 -0.1870
 1268SOL    HW1 3803   0.828   1.093   2.985 -0.0924  1.0984 -1.4380
 1268SOL    HW2 3804   0.767   1.221   3.039 -0.3003  0.6800 -0.6661
 1269SOL     OW 3805   3.317   0.760   3.786  0.2854 -0.0697 -0.3342
 1269SOL    HW1 3806   3.408   0.755   3.758  0.5690  0.1300  0.5148
 1269SOL    HW2 3807   3.285   0.842   3.750  0.2675 -0.4162 -1.1175
 1270SOL     OW 3808   1.127   1.946   3.830 -0.3110  0.3341  0.2059
 1270SOL    HW1 3809   1.187   2.002   3.781  0.0279  0.8893  1.2147
 1270SOL    HW2 3810   1.053   1.932   3.771 -0.0116  1.1432 -0.3803
 1271SOL     OW 3811   1.989   0.097   2.619  0.0772 -0.4416 -0.4620
 1271SOL    HW1 3812   1.986   0.167   2.684 -0.5659 -0.0331 -0.9183
 1271SOL    HW2 3813   1.968   0.018   2.667 -2.1572  0.0961 -0.4713
 1272SOL     OW 3814   2.948   2.098   0.234 -0.4052  0.4861 -0.3104
 1272SOL    HW1 3815   2.905   2.017   0.208 -0.1909  0.0639  0.6129
 1272SOL    HW2 3816   2.915   2.116   0.322  0.5317  0.6890  0.0143
 1273SOL     OW 3817   1.890   3.915   3.386 -0.0865  0.3919 -0.0134
 1273SOL    HW1 3818   1.870   3.828   3.352 -0.7346  0.7458 -0.5613
 1273SOL    HW2 3819   1.897   3.903   3.481  2.2728 -0.7074 -0.2713
 1274SOL     OW 3820   2.558   2.307   0.917 -0.2490 -0.0454  0.0101
 1274SOL    HW1 3821   2.540   2.214   0.929  0.7326 -0.1255  1.1542
 1274SOL    HW2 3822   2.633   2.309   0.858 -1.0768  0.0836 -1.0480
 1275SOL     OW 3823   2.802   2.127   1.803 -0.7036  0.1319  0.0195
 1275SOL    HW1 3824   2.857   2.162   1.733  0.6250 -1.3984  0.2491
 1275SOL    HW2 3825   2.735   2.076   1.757  1.1139 -2.2364 -0.1998
 1276SOL     OW 3826   2.134   3.211   0.585  0.3032 -0.2991 -0.4471
 1276SOL    HW1 3827   2.072   3.156   0.633 -1.7222 -0.3516 -2.8882
 1276SOL    HW2 3828   2.203   3.152   0.557  1.0032 -0.4453  1.4803
 1277SOL     OW 3829   3.077   1.870   1.954 -0.1189  0.3427  0.0337
 1277SOL    HW1 3830   3.110   1.789   1.994 -0.9794 -0.5806 -1.0603
 1277SOL    HW2 3831   3.139   1.889   1.884 -0.3847  0.1498 -0.2552
 1278SOL     OW 3832   3.535   1.900   2.259 -0.6272  0.3272 -0.0411
 1278SOL    HW1 3833   3.465   1.838   2.241 -0.0283 -1.0627  1.9414
 1278SOL    HW2 3834   3.493   1.972   2.306 -1.2033  1.1036 -1.6865
 1279SOL     OW 3835   2.525   3.087   3.530  0.3773  0.1812 -0.1035
 1279SOL    HW1 3836   2.595   3.129   3.580 -1.2440 -0.6151  3.1483
 1279SOL    HW2 3837   2.444   3.129   3.561 -0.8593 -1.5258 -0.8071
 1280SOL     OW 3838   2.203   3.460   0.741  0.3237  0.1845  0.1958
 1280SOL    HW1 3839   2.174   3.403   0.669 -1.4776  0.8677  0.3189
 1280SOL    HW2 3840   2.295   3.478   0.722 -0.1837  0.6272 -2.1282
 1281SOL     OW 3841   1.615   2.152   2.406 -0.1998  0.0211 -0.0703
 1281SOL    HW1 3842   1.698   2.143   2.454  0.4205  0.6996 -0.9902
 1281SOL    HW2 3843   1.595   2.063   2.376 -0.1623 -0.2618  0.7283
 1282SOL     OW 3844   1.873   1.200   0.079  0.5967  0.0378  0.2755
 1282SOL    HW1 3845   1.856   1.274   0.137  2.6230 -0.1751  1.2130
 1282SOL    HW2 3846   1.959   1.217   0.040  0.9782 -1.6441  0.2717
 1283SOL     OW 3847   2.827   3.592   0.920  0.2917  0.6367 -0.4818
 1283SOL    HW1 3848   2.854   3.681   0.897  0.6322  0.7944  0.4726
 1283SOL    HW2 3849   2.907   3.551   0.952 -0.3814  0.8976  1.7661
 1284SOL     OW 3850   0.227   3.040   1.394 -0.0985 -0.4026 -0.2252
 1284SOL    HW1 3851   0.183   3.082   1.468 -1.8513 -0.3516 -1.2535
 1284SOL    HW2 3852   0.305   3.000   1.433 -0.3181  0.6599  1.4184
 1285SOL     OW 3853   2.943   0.385   3.521  0.4740  0.0939  0.2225
 1285SOL    HW1 3854   2.936   0.470   3.566  0.1602  0.5177 -0.6040
 1285SOL    HW2 3855   3.035   0.379   3.497  0.3245  0.6345 -0.5219
 1286SOL     OW 3856   3.609   3.141   2.743  0.1486  0.1790 -0.0546
 1286SOL    HW1 3857   3.580   3.115   2.656 -0.3082  0.0441  0.1337
 1286SOL    HW2 3858   3.536   3.194   2.777  0.9414  1.5021 -0.3297
 1287SOL     OW 3859   3.769   3.694   0.830  0.3248  0.3890  0.3484
 1287SOL    HW1 3860   3.842   3.752   0.849  1.0794 -0.3051 -0.3565
 1287SOL    HW2 3861   3.808   3.618   0.787 -0.4261 -1.4042  2.6052
 1288SOL     OW 3862   0.382   2.214   1.387 -0.0611 -0.0558 -0.6048
 1288SOL    HW1 3863   0.288   2.212   1.370  0.0358 -1.1340 -1.0861
 1288SOL    HW2 3864   0.419   2.259   1.311 -0.3268  1.9817  0.4126
 1289SOL     OW 3865   1.646   1.354   0.597 -0.2183  0.5077 -0.0387
 1289SOL    HW1 3866   1.739   1.334   0.585 -0.3677  0.2162 -0.7343
 1289SOL    HW2 3867   1.627   1.421   0.532 -0.0961  1.8531  1.2644
 1290SOL     OW 3868   3.364   2.218   0.624 -0.0862  0.3802 -0.4454
 1290SOL    HW1 3869   3.363   2.146   0.687  2.3671 -0.2219 -0.9906
 1290SOL    HW2 3870   3.296   2.278   0.655 -2.5039 -2.2643 -0.1565
 1291SOL     OW 3871   0.470   2.156   0.554 -0.3763 -0.4389  0.1118
 1291SOL    HW1 3872   0.503   2.093   0.618 -0.2897  0.7911  1.3281
 1291SOL    HW2 3873   0.514   2.133   0.473  1.6884 -0.3540  1.1341
 1292SOL     OW 3874   1.320   2.683   0.659 -0.8420 -0.2201  0.1369
 1292SOL    HW1 3875   1.387   2.651   0.598  1.0935  0.5685  1.7406
 1292SOL    HW2 3876   1.276   2.603   0.689  0.4588 -0.9329  0.2256
 1293SOL     OW 3877   2.821   1.770   3.375 -0.0815 -0.5703 -0.2921
 1293SOL    HW1 3878   2.737   1.737   3.344 -0.8138  1.1735 -0.2716
 1293SOL    HW2 3879   2.822   1.862   3.349  1.6154 -0.4229  0.1489
 1294SOL     OW 3880   2.160   0.213   0.447 -0.0298  0.3506  0.0008
 1294SOL    HW1 3881   2.068   0.188   0.444  0.4297 -1.5817  0.5629
 1294SOL    HW2 3882   2.190   0.185   0.534  1.0203  1.2229 -0.0550
 1295SOL     OW 3883   2.804   1.670   1.852 -0.4947  0.0808  0.4362
 1295SOL    HW1 3884   2.747   1.699   1.923  1.3979 -0.0055  2.0834
 1295SOL    HW2 3885   2.869   1.740   1.844 -1.5313  0.8431 -2.3409
 1296SOL     OW 3886   1.871   1.102   3.196  0.3095 -0.5209 -0.1307
 1296SOL    HW1 3887   1.952   1.060   3.226  0.3428 -1.3654 -1.3189
 1296SOL    HW2 3888   1.834   1.040   3.133 -0.3612  0.6505 -0.9286
 1297SOL     OW 3889   1.542   0.511   2.149  0.2691 -0.0938 -0.5740
 1297SOL    HW1 3890   1.615   0.464   2.190 -0.3491  0.2816  1.0017
 1297SOL    HW2 3891   1.575   0.533   2.062  1.0421 -2.3145 -0.9162
 1298SOL     OW 3892   3.305   2.557   2.030 -0.0946 -0.8408 -0.1529
 1298SOL    HW1 3893   3.311   2.516   2.117 -0.3495  0.4923  0.5189
 1298SOL    HW2 3894   3.212   2.571   2.016  0.0510  0.7692  0.2700
 1299SOL     OW 3895   2.053   3.390   3.022 -0.1479  0.1230  0.2522
 1299SOL    HW1 3896   2.003   3.417   2.944 -0.9899 -1.6038  0.1382
 1299SOL    HW2 3897   2.097   3.310   2.995  1.2086  0.5984  0.9658
 1300SOL     OW 3898   0.055   0.557   1.358 -0.2072  0.2502 -0.3077
 1300SOL    HW1 3899   0.051   0.476   1.409 -4.0200  1.8690  2.4004
 1300SOL    HW2 3900   0.018   0.533   1.272 -0.6990 -1.0064  0.2357
 1301SOL     OW 3901   1.041   2.396   0.581 -1.0828  0.2923 -0.1775
 1301SOL    HW1 3902   1.025   2.304   0.559  1.4265 -0.4869  0.9150
 1301SOL    HW2 3903   1.093   2.429   0.508  0.6663 -0.0951  0.8491
 1302SOL     OW 3904   1.335   2.413   1.043 -0.4460  0.6374 -0.2253
 1302SOL    HW1 3905   1.286   2.429   0.962  0.5695 -0.2953 -1.0570
 1302SOL    HW2 3906   1.269   2.420   1.113 -2.0991 -1.8299 -1.3854
 1303SOL     OW 3907   0.464   3.321   0.852  0.3230  0.4020 -0.0778
 1303SOL    HW1 3908   0.423   3.322   0.938  0.0183  0.8059 -0.2268
 1303SOL    HW2 3909   0.557   3.335   0.870  0.7312 -2.3471  0.4171
 1304SOL     OW 3910   3.478   0.975   2.198 -0.0559  0.5293  0.1320
 1304SOL    HW1 3911   3.562   0.932   2.185  0.1420  1.1502 -0.7345
 1304SOL    HW2 3912   3.485   1.019   2.282  0.5600  0.7386 -0.0274
 1305SOL     OW 3913   0.800   2.373   0.130 -0.3295 -0.7956  0.4175
 1305SOL    HW1 3914   0.802   2.283   0.163 -0.5182 -0.5845  1.0103
 1305SOL    HW2 3915   0.711   2.404   0.150 -0.1475 -0.3516  0.5545
 1306SOL     OW 3916   2.043   1.470   3.748 -0.2076 -0.0707 -0.1441
 1306SOL    HW1 3917   2.126   1.517   3.743 -0.2362 -0.0845 -0.7665
 1306SOL    HW2 3918   2.013   1.464   3.657 -0.5369 -0.6917  0.0010
 1307SOL     OW 3919   2.800   2.533   2.478  0.1067 -0.5062  0.2633
 1307SOL    HW1 3920   2.828   2.445   2.454  1.3373 -0.2802  0.7941
 1307SOL    HW2 3921   2.855   2.591   2.426 -1.4641 -0.0124 -0.9402
 1308SOL     OW 3922   1.912   2.761   2.259  0.4590  0.7419 -0.1250
 1308SOL    HW1 3923   1.939   2.808   2.338  0.0461  0.1233  0.3952
 1308SOL    HW2 3924   1.825   2.795   2.239  1.2483  2.1514 -1.3357
 1309SOL     OW 3925   2.257   0.433   2.897 -0.0950 -0.2512 -0.9563
 1309SOL    HW1 3926   2.221   0.506   2.848 -1.3155 -0.7579 -0.8445
 1309SOL    HW2 3927   2.192   0.414   2.965  1.0990 -0.1907  0.2665
 1310SOL     OW 3928  -0.001   3.970   2.101  0.1167 -0.8355  0.0710
 1310SOL    HW1 3929   0.016   4.054   2.144 -3.5334  0.6646 -1.0048
 1310SOL    HW2 3930   0.072   3.958   2.041  0.8273  1.4855  0.3658
 1311SOL     OW 3931   0.431   3.504   1.654 -0.1238 -0.6423  0.7049
 1311SOL    HW1 3932   0.392   3.540   1.733 -0.5160 -0.8188  0.5927
 1311SOL    HW2 3933   0.525   3.500   1.674 -0.2236 -0.7247  1.1735
 1312SOL     OW 3934   2.527   0.305   2.382 -0.1550 -0.0912  0.0966
 1312SOL    HW1 3935   2.508   0.322   2.290  1.7302 -0.2200 -0.3546
 1312SOL    HW2 3936   2.517   0.390   2.425  0.1556  0.2275 -0.4550
 1313SOL     OW 3937   1.577   0.674   3.476 -0.5256 -0.5831 -0.6739
 1313SOL    HW1 3938   1.652   0.733   3.462 -1.5801  1.0020  0.0335
 1313SOL    HW2 3939   1.612   0.587   3.461  1.2481  0.1737 -1.2451
 1314SOL     OW 3940   3.742   1.892   2.072 -0.5116  0.1094 -0.3197
 1314SOL    HW1 3941   3.720   1.961   2.009 -0.1407  1.3430  0.8556
 1314SOL    HW2 3942   3.677   1.901   2.142  0.3362  0.1492  0.4813
 1315SOL     OW 3943   2.701   0.138   0.760 -0.1914 -0.0851  0.4632
 1315SOL    HW1 3944   2.753   0.074   0.712  1.4457  2.0463 -0.7861
 1315SOL    HW2 3945   2.617   0.141   0.715  0.0422 -0.6880 -0.0181
 1316SOL     OW 3946   1.896   2.185   0.470  0.6607  0.2491  0.1996
 1316SOL    HW1 3947   1.898   2.107   0.525  2.5121  0.4117  0.4266
 1316SOL    HW2 3948   1.804   2.212   0.470  0.2797 -0.9270  1.5385
 1317SOL     OW 3949   3.353   0.595   2.373  0.2903 -0.1351  0.0224
 1317SOL    HW1 3950   3.387   0.506   2.362 -1.2717 -1.1156  2.3800
 1317SOL    HW2 3951   3.399   0.628   2.450 -0.1852  0.5708  0.0036
 1318SOL     OW 3952   3.894   2.525   2.078  0.5703  0.0270 -0.5954
 1318SOL    HW1 3953   3.859   2.532   2.167  0.7128  1.4433 -0.6345
 1318SOL    HW2 3954   3.979   2.482   2.089  0.8390  0.6960  0.0311
 1319SOL     OW 3955   1.090   2.692   3.802  0.4544 -0.6683  0.3227
 1319SOL    HW1 3956   1.154   2.729   3.741 -1.3341 -0.2573 -1.4191
 1319SOL    HW2 3957   1.043   2.768   3.836 -0.9785 -1.0803 -0.6518
 1320SOL     OW 3958   0.125   3.319   0.528 -0.3702  0.2506  0.1373
 1320SOL    HW1 3959   0.150   3.321   0.621  1.6597  1.9034 -0.3791
 1320SOL    HW2 3960   0.163   3.398   0.491 -0.8761 -0.5235 -2.1946
 1321SOL     OW 3961   2.859   3.202   1.833  0.2899 -0.0428 -0.3347
 1321SOL    HW1 3962   2.925   3.255   1.877 -1.5157  1.7098  0.4179
 1321SOL    HW2 3963   2.787   3.195   1.896  0.0401 -2.5912 -0.7944
 1322SOL     OW 3964   1.740   1.883   2.595 -0.5949  0.0224 -0.5651
 1322SOL    HW1 3965   1.682   1.819   2.636  0.3613 -0.7638 -0.4108
 1322SOL    HW2 3966   1.703   1.897   2.508 -1.1791 -0.2404 -0.3658
 1323SOL     OW 3967   1.451   2.574   0.451  0.3847  0.2875  0.1858
 1323SOL    HW1 3968   1.518   2.560   0.385  1.4002  0.4847  1.1595
 1323SOL    HW2 3969   1.377   2.521   0.422  0.8651  0.2542 -1.0209
 1324SOL     OW 3970   1.046   1.058   3.879  0.1880  0.2345 -0.0666
 1324SOL    HW1 3971   1.129   1.056   3.925  0.4279 -0.7030 -0.5148
 1324SOL    HW2 3972   1.024   0.966   3.864 -1.3230  0.4264  0.7242
 1325SOL     OW 3973   2.835   1.239   1.731  0.2462 -0.7187  0.0883
 1325SOL    HW1 3974   2.797   1.178   1.795  0.6058 -0.2459  0.7626
 1325SOL    HW2 3975   2.925   1.253   1.762  0.3421 -0.2840 -0.3818
 1326SOL     OW 3976   3.121   3.259   0.641 -0.3478 -0.2002 -0.3150
 1326SOL    HW1 3977   3.113   3.229   0.732  0.3778  1.2825  0.2637
 1326SOL    HW2 3978   3.127   3.178   0.590  0.2598 -1.0606  1.0590
 1327SOL     OW 3979   0.175   1.146   1.922 -0.5972  0.3487  0.0507
 1327SOL    HW1 3980   0.092   1.177   1.886  0.1762 -0.3554 -2.5621
 1327SOL    HW2 3981   0.190   1.062   1.877  0.5961 -0.4994  1.9396
 1328SOL     OW 3982   1.955   1.093   2.639  0.8335 -0.0618 -0.1647
 1328SOL    HW1 3983   1.975   1.128   2.726 -0.7834  0.3495  0.0677
 1328SOL    HW2 3984   1.995   1.006   2.638  0.2061 -0.3855  1.2810
 1329SOL     OW 3985   1.701   3.119   3.949 -0.1385 -0.0192  0.0281
 1329SOL    HW1 3986   1.733   3.209   3.941  0.9663 -0.4824 -1.0686
 1329SOL    HW2 3987   1.666   3.098   3.863 -0.2790 -0.6999  0.2445
 1330SOL     OW 3988   2.888   0.082   3.961  0.0128  0.9124  0.2773
 1330SOL    HW1 3989   2.911   0.085   4.054  0.7737  1.6251  0.0756
 1330SOL    HW2 3990   2.948   0.018   3.923 -1.0774 -0.2743  0.4628
 1331SOL     OW 3991   2.611   1.436   1.104  0.1640 -0.3000  0.1069
 1331SOL    HW1 3992   2.613   1.341   1.091  3.6576 -0.4948  1.1181
 1331SOL    HW2 3993   2.644   1.449   1.193  2.4799  1.8866 -0.9411
 1332SOL     OW 3994   0.803   0.032   1.089  0.2093 -0.6871  0.1132
 1332SOL    HW1 3995   0.795   0.126   1.105  0.3768 -0.6971  0.2551
 1332SOL    HW2 3996   0.803   0.023   0.994 -1.7738 -0.6950  0.0629
 1333SOL     OW 3997   2.052   1.762   3.908  0.2309 -0.3220 -0.1070
 1333SOL    HW1 3998   2.007   1.692   3.956  1.3083 -1.1782 -0.3235
 1333SOL    HW2 3999   2.145   1.745   3.922  0.5232  1.2885  0.1411
 1334SOL     OW 4000   3.988   3.765   1.444 -0.9592 -0.2912 -0.1624
 1334SOL    HW1 4001   3.937   3.698   1.489  1.2726 -1.9930 -0.0014
 1334SOL    HW2 4002   4.045   3.801   1.512  1.2493 -1.7016 -1.1367
 1335SOL     OW 4003   0.775   3.123   1.271  0.0032  0.3350  0.0995
 1335SOL    HW1 4004   0.827   3.185   1.221  1.2270 -1.2314 -0.6560
 1335SOL    HW2 4005   0.693   3.116   1.222  0.4973  0.1571 -0.7201
 1336SOL     OW 4006   1.138   3.614   2.912  0.1420 -0.2901 -0.0370
 1336SOL    HW1 4007   1.186   3.632   2.831 -0.0712 -2.1675 -0.6195
 1336SOL    HW2 4008   1.063   3.673   2.909  1.1378  0.9956 -0.2720
 1337SOL     OW 4009   0.875   3.024   1.840 -0.2328 -0.3914 -0.1096
 1337SOL    HW1 4010   0.954   2.997   1.887 -0.5083  0.1080  0.6693
 1337SOL    HW2 4011   0.885   3.118   1.828 -0.7521 -0.3024  0.0972
 1338SOL     OW 4012   3.125   2.261   3.580  0.7033  0.0693 -0.0000
 1338SOL    HW1 4013   3.131   2.166   3.575  1.6503  0.1397 -0.4273
 1338SOL    HW2 4014   3.040   2.282   3.542 -0.1903 -0.6912  1.4755
 1339SOL     OW 4015   3.200   3.420   3.348  0.3938  0.3316  0.3011
 1339SOL    HW1 4016   3.211   3.452   3.437  0.6162  0.4586  0.2305
 1339SOL    HW2 4017   3.152   3.490   3.303  1.3861  0.8275 -0.0034
 1340SOL     OW 4018   1.441   1.714   2.001 -0.0288  0.2343 -0.5189
 1340SOL    HW1 4019   1.380   1.768   1.951  0.5170  0.3808 -1.0286
 1340SOL    HW2 4020   1.521   1.713   1.949  0.9240  1.2894  0.8703
 1341SOL     OW 4021   3.519   0.647   3.102 -0.0732  0.1676  0.7752
 1341SOL    HW1 4022   3.476   0.610   3.179 -0.2225  0.3464  0.7791
 1341SOL    HW2 4023   3.590   0.586   3.082 -2.4595 -2.1414 -1.3892
 1342SOL     OW 4024   3.178   1.030   3.325  0.2458  0.3178  0.0746
 1342SOL    HW1 4025   3.169   0.995   3.236  2.1462  1.1202 -0.4925
 1342SOL    HW2 4026   3.219   1.116   3.312  0.3026  0.5577  1.7230
 1343SOL     OW 4027   2.170   0.386   3.998  0.3472  0.6574 -0.0314
 1343SOL    HW1 4028   2.260   0.369   3.970  0.6263  0.9563  0.6476
 1343SOL    HW2 4029   2.122   0.306   3.979  1.0921 -0.0527  0.9429
 1344SOL     OW 4030   0.804   1.868   0.131 -0.5239 -0.6537 -0.0448
 1344SOL    HW1 4031   0.764   1.878   0.044  1.1242 -1.2095 -0.9076
 1344SOL    HW2 4032   0.857   1.789   0.124 -0.2197 -0.6084  1.4330
 1345SOL     OW 4033   2.072   1.076   2.912  0.0239 -0.2150 -0.3412
 1345SOL    HW1 4034   1.993   1.022   2.910 -0.3561  0.2347  1.2053
 1345SOL    HW2 4035   2.138   1.024   2.867 -1.2136 -0.4630 -1.9772
 1346SOL     OW 4036   1.591   2.619   0.932 -0.0772 -0.6351  0.0562
 1346SOL    HW1 4037   1.639   2.573   1.001 -1.4354 -2.2966 -0.0372
 1346SOL    HW2 4038   1.542   2.550   0.888 -1.4204  0.7948 -0.7662
 1347SOL     OW 4039   3.295   3.308   1.002 -0.1297  0.3525 -0.0408
 1347SOL    HW1 4040   3.246   3.245   0.950  0.4259 -1.6279  1.7147
 1347SOL    HW2 4041   3.370   3.331   0.949 -0.7888  0.2209 -1.0536
 1348SOL     OW 4042   0.848   1.460   1.162  0.6888 -0.0815  0.2133
 1348SOL    HW1 4043   0.928   1.497   1.199  0.2299 -1.2199  2.5153
 1348SOL    HW2 4044   0.860   1.365   1.166  0.6050 -0.3328 -2.7336
 1349SOL     OW 4045   0.729   3.840   2.103 -0.5446 -0.0878 -0.1199
 1349SOL    HW1 4046   0.737   3.758   2.152 -1.4198 -0.5683 -0.7507
 1349SOL    HW2 4047   0.800   3.836   2.039  0.9054  0.7605  1.3529
 1350SOL     OW 4048   0.075   1.061   3.017 -0.4105  0.1549  0.3347
 1350SOL    HW1 4049   0.028   1.027   2.941  1.4727 -0.6097 -0.5673
 1350SOL    HW2 4050   0.088   0.985   3.074 -0.5247  0.4204  0.7230
 1351SOL     OW 4051   1.150   2.871   0.399 -0.1814 -0.6862  0.4009
 1351SOL    HW1 4052   1.085   2.820   0.350  0.4830 -0.9269 -0.2396
 1351SOL    HW2 4053   1.117   2.869   0.490 -0.6566 -1.4661  0.2274
 1352SOL     OW 4054   0.229   3.277   3.646  0.2847  0.3555  0.5871
 1352SOL    HW1 4055   0.207   3.198   3.596  1.8850  0.9002 -1.0499
 1352SOL    HW2 4056   0.299   3.248   3.706  1.6292  0.7241 -0.7555
 1353SOL     OW 4057   2.296   2.482   3.432 -0.5158 -0.0305 -0.2823
 1353SOL    HW1 4058   2.212   2.493   3.478 -0.2260 -0.9112  0.5003
 1353SOL    HW2 4059   2.361   2.482   3.502  0.0541 -0.1772 -0.8122
 1354SOL     OW 4060   2.774   3.883   2.338 -0.3034 -0.4234 -0.6003
 1354SOL    HW1 4061   2.745   3.799   2.372  0.1604 -0.2044  0.3739
 1354SOL    HW2 4062   2.729   3.948   2.393  1.1352 -0.0716  0.2371
 1355SOL     OW 4063   3.630   2.618   0.577 -0.2151 -0.1594  0.1361
 1355SOL    HW1 4064   3.698   2.629   0.643 -1.2377  2.5655  0.8580
 1355SOL    HW2 4065   3.668   2.557   0.514  3.0313  1.3607  0.3892
 1356SOL     OW 4066   2.808   3.448   0.124  0.1112  0.5991 -0.3101
 1356SOL    HW1 4067   2.868   3.376   0.104  1.4018  1.8174 -0.9375
 1356SOL    HW2 4068   2.851   3.526   0.090 -1.0870  1.7429  0.6832
 1357SOL     OW 4069   2.078   0.430   1.947  0.2319 -0.4037  0.1577
 1357SOL    HW1 4070   2.076   0.522   1.973  3.2839 -0.6806  1.8368
 1357SOL    HW2 4071   2.149   0.392   1.997 -0.2164 -3.4930 -1.2726
 1358SOL     OW 4072   1.396   0.479   3.189  0.0761  0.3424 -0.5503
 1358SOL    HW1 4073   1.344   0.549   3.228  1.1021  1.1824 -0.6214
 1358SOL    HW2 4074   1.403   0.504   3.096 -0.2839 -0.3302 -0.7647
 1359SOL     OW 4075   3.963   1.160   3.260  0.4850  1.0260 -0.0140
 1359SOL    HW1 4076   3.891   1.218   3.233 -0.3630  0.1490  0.2925
 1359SOL    HW2 4077   4.032   1.176   3.196  0.2758  2.3648  0.0602
 1360SOL     OW 4078   1.034   0.822   1.596 -0.2086 -0.2635  0.3909
 1360SOL    HW1 4079   1.079   0.906   1.607 -0.6225  0.0279 -0.0649
 1360SOL    HW2 4080   1.097   0.756   1.624  0.0731  0.2088  0.8835
 1361SOL     OW 4081   1.199   2.413   0.800  0.6633 -0.4801 -0.3280
 1361SOL    HW1 4082   1.138   2.434   0.729 -0.1790  4.3276  1.4489
 1361SOL    HW2 4083   1.154   2.346   0.851 -0.5171 -1.1009 -2.0786
 1362SOL     OW 4084   0.763   1.206   3.797 -0.3551 -0.3728  0.3938
 1362SOL    HW1 4085   0.691   1.176   3.852  0.3346 -0.8079  1.0896
 1362SOL    HW2 4086   0.841   1.170   3.839  0.1934 -0.6896 -0.8665
 1363SOL     OW 4087   2.486   2.985   1.091  0.0771 -0.5942 -0.3009
 1363SOL    HW1 4088   2.509   3.071   1.058 -0.2564 -0.1340  0.6167
 1363SOL    HW2 4089   2.534   2.977   1.174 -0.1164 -1.1684 -0.2361
 1364SOL     OW 4090   2.077   2.256   2.281 -0.3415 -0.2727  0.3655
 1364SOL    HW1 4091   2.013   2.187   2.300 -0.2776 -0.2071  0.8265
 1364SOL    HW2 4092   2.090   2.251   2.187  1.2477 -2.2975  0.6185
 1365SOL     OW 4093   0.910   0.754   3.626  0.5850  0.4584  0.2740
 1365SOL    HW1 4094   0.878   0.664   3.632 -0.6299  0.8859  0.3349
 1365SOL    HW2 4095   0.955   0.768   3.709 -1.6272  0.7914  1.4857
 1366SOL     OW 4096   3.423   1.780   3.077 -0.1495  0.1210  0.1546
 1366SOL    HW1 4097   3.509   1.797   3.040 -0.1542 -1.0019 -0.4316
 1366SOL    HW2 4098   3.363   1.833   3.024  0.0064 -0.3916 -0.5540
 1367SOL     OW 4099   3.165   3.867   0.334  0.0679 -0.6452 -0.2017
 1367SOL    HW1 4100   3.226   3.877   0.407 -1.2631  0.9128  0.7822
 1367SOL    HW2 4101   3.133   3.777   0.340  0.9255 -0.9192  0.3369
 1368SOL     OW 4102   0.852   3.230   3.712  0.4170  0.0168 -0.1048
 1368SOL    HW1 4103   0.788   3.297   3.738  0.3551  0.0449 -0.3287
 1368SOL    HW2 4104   0.924   3.241   3.774  0.6338  0.6296 -0.4564
 1369SOL     OW 4105   0.931   1.014   3.306 -0.3369 -0.5536 -0.5432
 1369SOL    HW1 4106   0.998   0.999   3.239  1.9167 -0.2140  1.4847
 1369SOL    HW2 4107   0.977   1.060   3.376 -2.8691  0.1824  0.7653
 1370SOL     OW 4108   2.994   0.594   0.128 -0.4548  0.0594 -0.1146
 1370SOL    HW1 4109   2.950   0.510   0.119  2.2367 -1.8209  2.2106
 1370SOL    HW2 4110   3.069   0.588   0.069 -0.4033  0.9877 -0.1589
 1371SOL     OW 4111   3.370   0.555   1.151  0.2639  0.7257  0.5576
 1371SOL    HW1 4112   3.445   0.584   1.098 -1.9080  0.9286 -2.6620
 1371SOL    HW2 4113   3.306   0.625   1.143 -1.5569 -0.8933  0.4155
 1372SOL     OW 4114   0.465   2.922   2.711 -0.0334 -0.2294 -0.5694
 1372SOL    HW1 4115   0.526   2.858   2.674 -1.4925 -1.8965 -0.2050
 1372SOL    HW2 4116   0.405   2.870   2.765 -0.9479  1.5212  0.1758
 1373SOL     OW 4117   3.255   2.937   1.453 -0.0556  0.0588  0.4062
 1373SOL    HW1 4118   3.317   2.958   1.523  0.8227 -1.3923  0.1203
 1373SOL    HW2 4119   3.176   2.910   1.499  0.3321 -0.3440  0.8580
 1374SOL     OW 4120   0.619   2.128   3.780 -0.3528 -0.5335  0.4057
 1374SOL    HW1 4121   0.696   2.162   3.827 -0.1940  0.5456 -0.6111
 1374SOL    HW2 4122   0.547   2.182   3.812 -0.2569  0.1533 -0.4929
 1375SOL     OW 4123   1.912   0.848   1.120 -0.6901  0.1867 -0.4670
 1375SOL    HW1 4124   1.868   0.765   1.142 -2.6353  1.5465  1.1768
 1375SOL    HW2 4125   1.969   0.826   1.046  0.0981 -2.9702  0.8643
 1376SOL     OW 4126   2.511   0.351   2.105 -0.1606 -0.3440 -0.2152
 1376SOL    HW1 4127   2.484   0.388   2.021  0.8849  3.1532  0.7912
 1376SOL    HW2 4128   2.605   0.335   2.095 -0.0744 -0.1133  0.1890
 1377SOL     OW 4129   0.358   0.996   1.193  0.0135 -0.7736  0.7879
 1377SOL    HW1 4130   0.292   0.962   1.132  1.1602 -0.1954 -0.8425
 1377SOL    HW2 4131   0.384   1.080   1.155  1.8726 -1.1099  1.2420
 1378SOL     OW 4132   3.241   0.907   1.305  0.5484 -0.1582 -0.2470
 1378SOL    HW1 4133   3.323   0.867   1.331 -0.3051  0.0055  3.2256
 1378SOL    HW2 4134   3.232   0.983   1.362 -2.2986 -0.5546 -0.0176
 1379SOL     OW 4135   2.180   3.638   1.477  0.3386  0.2259 -0.7853
 1379SOL    HW1 4136   2.181   3.546   1.450  2.1389  0.0346 -0.1824
 1379SOL    HW2 4137   2.202   3.635   1.570 -1.3547  1.1784 -0.2982
 1380SOL     OW 4138   0.709   1.747   2.028 -0.2308  0.4523 -0.1283
 1380SOL    HW1 4139   0.664   1.697   1.960  1.1984 -3.0028  1.2408
 1380SOL    HW2 4140   0.801   1.728   2.015  0.3446  2.2602  0.9452
 1381SOL     OW 4141   3.668   3.506   3.866  0.1815  0.3085 -0.4813
 1381SOL    HW1 4142   3.727   3.500   3.942 -1.9606 -1.0492  1.2031
 1381SOL    HW2 4143   3.661   3.415   3.835 -0.6927  0.5243 -0.9325
 1382SOL     OW 4144   0.832   2.415   1.959  0.3153 -0.1411  0.0230
 1382SOL    HW1 4145   0.784   2.352   1.905 -0.3053 -0.8598  1.3755
 1382SOL    HW2 4146   0.914   2.429   1.911 -0.9837  0.7406 -2.0838
 1383SOL     OW 4147   2.247   2.650   2.845 -0.2672 -0.2092 -0.1601
 1383SOL    HW1 4148   2.261   2.647   2.750  0.9454 -1.5409  0.0295
 1383SOL    HW2 4149   2.323   2.605   2.882 -1.3624 -0.8558  1.3912
 1384SOL     OW 4150   2.267   1.415   2.588 -0.3158  0.0681  0.2599
 1384SOL    HW1 4151   2.207   1.355   2.544 -0.9476 -0.4841  1.7724
 1384SOL    HW2 4152   2.354   1.383   2.564 -0.5586  0.9955 -2.1142
 1385SOL     OW 4153   2.552   2.676   3.183 -0.2232  0.0983 -0.0286
 1385SOL    HW1 4154   2.575   2.755   3.232 -0.0465  0.2027 -0.2758
 1385SOL    HW2 4155   2.524   2.614   3.250 -0.4235  0.3912  0.1603
 1386SOL     OW 4156   0.627   3.392   3.776  0.2574 -0.3689 -0.4528
 1386SOL    HW1 4157   0.571   3.387   3.699 -0.4618 -0.0280  0.0382
 1386SOL    HW2 4158   0.573   3.434   3.843  2.2602  3.6079 -1.0351
 1387SOL     OW 4159   3.822   1.183   1.277  0.1050  0.3893 -0.7809
 1387SOL    HW1 4160   3.805   1.276   1.291  1.0887  0.7124 -1.6289
 1387SOL    HW2 4161   3.917   1.175   1.281  0.0228 -0.6056 -0.5904
 1388SOL     OW 4162   2.769   2.892   2.411 -0.0738 -0.6115 -0.3495
 1388SOL    HW1 4163   2.788   2.921   2.500 -1.1219 -0.9562 -0.0012
 1388SOL    HW2 4164   2.674   2.894   2.405  0.0060  0.8055 -1.9378
 1389SOL     OW 4165   1.509   1.426   2.118 -0.0721 -0.0458 -0.6552
 1389SOL    HW1 4166   1.427   1.385   2.146  1.2482 -1.0705  2.0291
 1389SOL    HW2 4167   1.534   1.377   2.040 -1.5616 -0.2804 -1.0190
 1390SOL     OW 4168   1.745   0.798   3.114 -0.0541  0.1810 -0.0969
 1390SOL    HW1 4169   1.747   0.712   3.072 -0.6350  0.8169 -1.4862
 1390SOL    HW2 4170   1.657   0.806   3.149  0.7890 -0.8834  2.5386
 1391SOL     OW 4171   0.432   3.866   0.836 -0.3511  0.3064 -0.2158
 1391SOL    HW1 4172   0.479   3.826   0.763 -0.8821  0.7149 -0.7949
 1391SOL    HW2 4173   0.341   3.867   0.808 -0.7260 -0.4903  0.9012
 1392SOL     OW 4174   3.431   2.167   0.320  0.3570 -0.5892  0.1165
 1392SOL    HW1 4175   3.368   2.098   0.300 -0.4314  0.4585 -1.1565
 1392SOL    HW2 4176   3.413   2.191   0.411 -1.5707  0.1528 -0.4212
 1393SOL     OW 4177   2.679   0.267   0.999  0.4303  0.0429 -0.2199
 1393SOL    HW1 4178   2.710   0.355   0.977  0.5486 -0.4559 -2.3140
 1393SOL    HW2 4179   2.676   0.221   0.915  1.3171 -2.2712  0.9140
 1394SOL     OW 4180   1.644   1.278   2.353 -0.2184 -1.0167 -0.0102
 1394SOL    HW1 4181   1.686   1.199   2.318  1.7604  0.8922 -2.3195
 1394SOL    HW2 4182   1.629   1.333   2.276 -2.5505  0.4700  1.3838
 1395SOL     OW 4183   2.821   3.257   2.888 -0.1300 -0.2946  0.3160
 1395SOL    HW1 4184   2.727   3.242   2.888 -0.1224 -0.7610 -2.4527
 1395SOL    HW2 4185   2.856   3.193   2.951 -1.5643 -0.7705  0.6562
 1396SOL     OW 4186   3.265   2.696   2.322 -0.7747  0.3096 -0.3905
 1396SOL    HW1 4187   3.185   2.748   2.318 -1.4560 -0.5495  1.2395
 1396SOL    HW2 4188   3.238   2.612   2.359  0.4905 -0.8386 -1.8906
 1397SOL     OW 4189   3.198   2.720   3.852  0.8200  0.0799 -0.5760
 1397SOL    HW1 4190   3.201   2.791   3.787  1.6807  0.2402 -0.3777
 1397SOL    HW2 4191   3.113   2.679   3.839  0.4521  0.9267 -0.9400
 1398SOL     OW 4192   1.908   3.855   1.735 -0.2380 -0.0634  0.0326
 1398SOL    HW1 4193   1.983   3.836   1.679 -0.1368 -2.5704  0.8729
 1398SOL    HW2 4194   1.895   3.774   1.785 -2.3889  0.9259  1.2034
 1399SOL     OW 4195   0.814   2.321   2.828 -0.4719 -0.1430  1.0071
 1399SOL    HW1 4196   0.901   2.359   2.812 -0.7973  0.4346  0.5430
 1399SOL    HW2 4197   0.764   2.392   2.868 -0.7999 -0.3916  1.0423
 1400SOL     OW 4198   0.042   1.895   3.242  0.7447 -0.0051 -0.0285
 1400SOL    HW1 4199   0.079   1.916   3.157  1.2268  0.9174  0.3949
 1400SOL    HW2 4200  -0.053   1.903   3.231  0.8688  1.8885 -0.0457
 1401SOL     OW 4201   1.199   1.298   3.109 -0.5619 -0.2175 -0.1252
 1401SOL    HW1 4202   1.145   1.308   3.031  0.6380 -0.0631 -0.9589
 1401SOL    HW2 4203   1.155   1.350   3.176 -2.2761 -1.3226 -0.3213
 1402SOL     OW 4204   1.357   0.303   3.428  1.2218  0.5350 -0.2684
 1402SOL    HW1 4205   1.360   0.368   3.498 -0.3608  0.0400  0.3074
 1402SOL    HW2 4206   1.371   0.354   3.348 -2.9881  2.2334 -0.1738
 1403SOL     OW 4207   1.938   0.268   2.823 -0.4240  0.3885  0.2835
 1403SOL    HW1 4208   1.873   0.277   2.892 -0.2462  1.6731  0.3079
 1403SOL    HW2 4209   1.913   0.334   2.758 -0.4558 -0.6454 -0.7736
 1404SOL     OW 4210   0.102   1.180   1.224 -0.3325 -0.3196 -0.3518
 1404SOL    HW1 4211   0.068   1.197   1.137  0.5114  0.6918 -0.5058
 1404SOL    HW2 4212   0.166   1.250   1.239  1.1151 -1.6904  0.2012
 1405SOL     OW 4213   0.838   1.704   2.539 -0.3591 -0.1836  0.3012
 1405SOL    HW1 4214   0.856   1.650   2.616  0.1894 -0.7252 -0.1886
 1405SOL    HW2 4215   0.778   1.652   2.486  1.2862 -0.9846 -0.8543
 1406SOL     OW 4216   0.927   3.770   3.995  0.4281 -0.3382 -0.6457
 1406SOL    HW1 4217   0.956   3.861   3.991 -3.1416  0.9720 -0.6202
 1406SOL    HW2 4218   0.999   3.720   3.956  3.3636  2.1739  1.1000
 1407SOL     OW 4219   2.460   2.106   1.472  0.3161  0.0810  0.6388
 1407SOL    HW1 4220   2.483   2.199   1.465  0.6192 -0.1165 -1.7043
 1407SOL    HW2 4221   2.365   2.104   1.470  0.2861  0.3498  1.3427
 1408SOL     OW 4222   2.255   3.776   1.246  0.2451 -0.1728 -0.8643
 1408SOL    HW1 4223   2.277   3.859   1.288  2.5530 -0.8317 -0.6536
 1408SOL    HW2 4224   2.257   3.712   1.317 -0.5064 -0.5809 -1.1962
 1409SOL     OW 4225   0.068   1.429   2.889  0.0284  0.5124 -0.2074
 1409SOL    HW1 4226   0.018   1.352   2.861  0.6870 -0.6901  1.6847
 1409SOL    HW2 4227   0.158   1.398   2.896  0.0437  0.8845  2.3063
 1410SOL     OW 4228   0.587   0.602   3.488 -0.3841  0.0574  0.0890
 1410SOL    HW1 4229   0.655   0.555   3.536  1.5855  0.2934 -2.2850
 1410SOL    HW2 4230   0.559   0.672   3.547  1.0004 -0.4406  1.3764
 1411SOL     OW 4231   0.275   1.102   0.234 -0.3215 -0.0098 -0.3238
 1411SOL    HW1 4232   0.249   1.073   0.147  1.0076 -0.3947 -0.6175
 1411SOL    HW2 4233   0.371   1.094   0.235 -0.3760 -1.2814  1.5980
 1412SOL     OW 4234   0.718   1.696   1.103  0.3328  0.4307 -0.1126
 1412SOL    HW1 4235   0.787   1.747   1.060  1.5379  0.3107  1.5660
 1412SOL    HW2 4236   0.741   1.605   1.084 -1.1086  0.4012 -2.0472
 1413SOL     OW 4237   2.247   1.764   1.298 -0.0747 -0.5015 -0.0514
 1413SOL    HW1 4238   2.294   1.682   1.311  1.0801  0.4157  2.0968
 1413SOL    HW2 4239   2.155   1.742   1.317 -0.1508 -1.7054 -1.6040
 1414SOL     OW 4240   1.168   0.709   2.718  0.3424 -0.5391  0.3731
 1414SOL    HW1 4241   1.124   0.776   2.666  1.0164  0.6889  1.3093
 1414SOL    HW2 4242   1.105   0.638   2.724 -1.0424  0.6512  0.6195
 1415SOL     OW 4243   2.822   0.377   2.440  0.3041  0.1044  0.0407
 1415SOL    HW1 4244   2.849   0.364   2.531  1.4146  1.7232 -0.0131
 1415SOL    HW2 4245   2.741   0.427   2.446 -0.4789 -1.1412  0.1396
 1416SOL     OW 4246   3.364   0.089   1.525 -0.7011  0.0120 -0.0343
 1416SOL    HW1 4247   3.434   0.077   1.460 -0.8586  0.9322 -0.3815
 1416SOL    HW2 4248   3.304   0.017   1.508  0.5471 -1.3044  0.8106
 1417SOL     OW 4249   2.063   3.158   3.271 -0.3418 -0.2677 -0.5873
 1417SOL    HW1 4250   2.031   3.084   3.324 -2.0106  1.5719  1.1841
 1417SOL    HW2 4251   2.153   3.171   3.300 -0.6591 -0.4373  0.5611
 1418SOL     OW 4252   0.767   0.799   2.243  0.2456 -0.3184  0.0946
 1418SOL    HW1 4253   0.811   0.825   2.163 -0.0389 -1.3001 -0.4024
 1418SOL    HW2 4254   0.823   0.730   2.280 -0.3123 -0.8248  0.0146
 1419SOL     OW 4255   3.582   1.588   2.159 -0.0149 -0.8158 -0.6624
 1419SOL    HW1 4256   3.654   1.569   2.099  0.6255  0.8085 -0.4564
 1419SOL    HW2 4257   3.624   1.601   2.244 -0.4469  0.8440 -0.6765
 1420SOL     OW 4258   0.893   1.555   2.738 -0.0184  0.8417  0.1933
 1420SOL    HW1 4259   0.920   1.465   2.758  0.2165  0.0622 -3.0660
 1420SOL    HW2 4260   0.808   1.565   2.779 -1.1238 -1.7608 -1.2383
 1421SOL     OW 4261   0.828   0.342   3.407  0.5029 -0.1351 -0.1082
 1421SOL    HW1 4262   0.772   0.336   3.484  1.3641  1.2130  0.6522
 1421SOL    HW2 4263   0.899   0.402   3.432  0.0817  1.4447 -2.3741
 1422SOL     OW 4264   3.202   3.163   0.300  0.5358 -0.3343  1.0180
 1422SOL    HW1 4265   3.226   3.071   0.302  1.2197 -0.2192 -0.3705
 1422SOL    HW2 4266   3.284   3.208   0.279 -0.4906  0.2201 -2.4473
 1423SOL     OW 4267   2.781   0.740   0.848 -0.0044 -0.1962 -0.1136
 1423SOL    HW1 4268   2.714   0.682   0.814 -0.2494  1.0757 -1.9901
 1423SOL    HW2 4269   2.827   0.771   0.770  0.3095  1.8497  0.8171
 1424SOL     OW 4270   2.603   2.146   2.695 -0.0708 -0.7506  0.3835
 1424SOL    HW1 4271   2.614   2.077   2.629  0.9462 -2.1284  1.9228
 1424SOL    HW2 4272   2.515   2.131   2.730 -1.0465  0.6438 -1.3069
 1425SOL     OW 4273   1.582   3.618   0.497  0.0780  0.5082 -0.3285
 1425SOL    HW1 4274   1.536   3.697   0.526  2.2904  1.2009  1.6265
 1425SOL    HW2 4275   1.602   3.634   0.405 -1.0630  1.4195 -0.4382
 1426SOL     OW 4276   0.711   1.312   2.476 -0.5627 -0.4496  0.5142
 1426SOL    HW1 4277   0.672   1.400   2.474 -0.8503 -0.5917 -0.9094
 1426SOL    HW2 4278   0.636   1.253   2.484 -0.5462 -0.6467 -0.6329
 1427SOL     OW 4279   2.169   3.368   1.414  0.5143  0.0981  0.0226
 1427SOL    HW1 4280   2.210   3.339   1.495 -0.8038 -1.1233  0.2951
 1427SOL    HW2 4281   2.142   3.287   1.370  2.0740  0.6723 -2.1391
 1428SOL     OW 4282   1.714   0.228   1.552 -0.1117  0.4752 -0.3813
 1428SOL    HW1 4283   1.625   0.255   1.532 -0.5190  0.1740  0.9277
 1428SOL    HW2 4284   1.715   0.134   1.538 -0.2427  0.3499  0.3946
 1429SOL     OW 4285   1.139   2.399   3.861 -0.2937 -0.2833  0.1158
 1429SOL    HW1 4286   1.129   2.361   3.948 -2.4716 -0.6943 -0.2619
 1429SOL    HW2 4287   1.093   2.483   3.866  1.5258  0.7832 -0.0391
 1430SOL     OW 4288   1.423   0.695   0.743 -0.0048 -0.4035 -0.6343
 1430SOL    HW1 4289   1.433   0.755   0.817  0.8919 -1.6567  0.3122
 1430SOL    HW2 4290   1.330   0.674   0.742 -0.2413  0.5683 -0.6550
 1431SOL     OW 4291   3.943   1.923   2.696 -0.6770  0.2322  0.1033
 1431SOL    HW1 4292   4.001   1.941   2.623  0.4040 -0.5760  0.7373
 1431SOL    HW2 4293   3.862   1.891   2.655  0.4693 -1.7638 -0.7334
 1432SOL     OW 4294   0.356   0.786   2.395 -0.6681 -0.0543 -0.3335
 1432SOL    HW1 4295   0.305   0.782   2.476  0.8459  0.9449  0.7018
 1432SOL    HW2 4296   0.443   0.813   2.422 -0.0587  0.0826 -2.2839
 1433SOL     OW 4297   2.815   1.577   0.587 -0.1957 -0.7137 -0.2816
 1433SOL    HW1 4298   2.813   1.539   0.675  0.1165  1.2136  0.6052
 1433SOL    HW2 4299   2.726   1.605   0.571  0.0047  0.0699 -0.0475
 1434SOL     OW 4300   0.033   3.835   1.194  0.1771  0.0529 -0.1834
 1434SOL    HW1 4301   0.029   3.806   1.285  1.1631 -2.6559 -0.9048
 1434SOL    HW2 4302   0.096   3.907   1.195  0.3710 -0.1026  1.2273
 1435SOL     OW 4303   0.958   3.635   2.027 -0.3346  0.5353 -0.5713
 1435SOL    HW1 4304   1.006   3.639   2.110 -1.6380  0.9456  0.1927
 1435SOL    HW2 4305   0.883   3.579   2.046  0.3668 -0.9960 -2.0458
 1436SOL     OW 4306   2.143   2.326   0.814  0.4462  0.1677 -0.3516
 1436SOL    HW1 4307   2.096   2.400   0.774 -0.3564  1.6745  3.0363
 1436SOL    HW2 4308   2.227   2.362   0.842 -0.1615  0.0420  1.8151
 1437SOL     OW 4309   3.446   1.404   1.393 -0.2735  0.0737  0.0785
 1437SOL    HW1 4310   3.421   1.489   1.358  2.5253  0.5305 -1.0028
 1437SOL    HW2 4311   3.403   1.341   1.336  0.3329  0.8005 -1.2221
 1438SOL     OW 4312   1.389   0.201   1.919  0.2188  0.2142  0.6438
 1438SOL    HW1 4313   1.412   0.190   2.011  0.0515  0.8336  0.7650
 1438SOL    HW2 4314   1.459   0.254   1.883  0.6790 -0.6486  0.2228
 1439SOL     OW 4315   3.772   0.610   2.073  0.0082  0.2137  0.6624
 1439SOL    HW1 4316   3.822   0.530   2.093  0.7688  0.7606  1.0240
 1439SOL    HW2 4317   3.839   0.678   2.065 -0.4441  0.4988 -1.4577
 1440SOL     OW 4318   2.250   3.158   3.564  0.3661  0.1107 -0.0477
 1440SOL    HW1 4319   2.295   3.198   3.638 -0.2767 -0.1284  0.4773
 1440SOL    HW2 4320   2.195   3.090   3.603  1.9275 -1.7686 -0.9585
 1441SOL     OW 4321   3.623   1.833   2.895  0.0468 -0.7549 -0.2951
 1441SOL    HW1 4322   3.702   1.780   2.879 -0.3713 -0.7454 -2.6466
 1441SOL    HW2 4323   3.597   1.864   2.809 -1.6448  0.5660  0.6443
 1442SOL     OW 4324   0.894   3.266   1.731  0.1916  0.3102 -0.2434
 1442SOL    HW1 4325   0.928   3.356   1.736  1.5921 -0.0838 -1.6605
 1442SOL    HW2 4326   0.821   3.271   1.670 -0.1548  0.5915  0.1895
 1443SOL     OW 4327   1.098   3.778   1.165 -0.4455 -0.5575  0.0974
 1443SOL    HW1 4328   1.047   3.720   1.108 -2.1327 -0.3982  1.3490
 1443SOL    HW2 4329   1.129   3.847   1.108 -0.9822 -1.0877 -0.8663
 1444SOL     OW 4330   1.278   1.517   0.402 -0.0860  0.1062  0.5757
 1444SOL    HW1 4331   1.275   1.424   0.424  0.6476 -0.3099 -0.9542
 1444SOL    HW2 4332   1.252   1.522   0.310 -1.7742  1.6280  1.0757
 1445SOL     OW 4333   0.853   0.258   2.883 -0.0259  0.0506 -0.0361
 1445SOL    HW1 4334   0.798   0.189   2.845  1.7557 -1.1114 -0.6372
 1445SOL    HW2 4335   0.805   0.339   2.866 -2.6951 -1.0601  1.6180
 1446SOL     OW 4336   3.095   1.632   4.002  0.1567 -1.1223  0.4784
 1446SOL    HW1 4337   3.010   1.606   3.968  0.4077 -1.6536  0.2348
 1446SOL    HW2 4338   3.143   1.663   3.925 -0.5542  1.3033  0.9442
 1447SOL     OW 4339   2.542   0.758   2.678  0.5235 -0.1206 -0.0076
 1447SOL    HW1 4340   2.565   0.846   2.709  0.6133 -0.1470  0.0008
 1447SOL    HW2 4341   2.589   0.699   2.737 -0.4572 -0.1997  0.7339
 1448SOL     OW 4342   2.135   2.876   1.045 -0.4138 -0.0007 -0.2038
 1448SOL    HW1 4343   2.111   2.799   0.994 -0.7632 -0.8778  1.2311
 1448SOL    HW2 4344   2.163   2.940   0.980 -2.6732 -0.3740 -1.6660
 1449SOL     OW 4345   0.412   2.075   3.129  0.4940  0.3145  0.1428
 1449SOL    HW1 4346   0.453   2.153   3.091  1.9957 -0.0061  1.0099
 1449SOL    HW2 4347   0.405   2.096   3.222  1.7555 -0.8977  0.5441
 1450SOL     OW 4348   2.273   3.921   2.996  0.0831  0.5666  0.6328
 1450SOL    HW1 4349   2.287   4.002   2.947 -1.7134 -0.9879 -2.8141
 1450SOL    HW2 4350   2.359   3.900   3.033  1.3658  2.3905 -1.0914
 1451SOL     OW 4351   2.291   3.533   0.435 -1.0035 -0.2270 -0.0589
 1451SOL    HW1 4352   2.289   3.566   0.345 -1.6145  1.9765  0.6788
 1451SOL    HW2 4353   2.347   3.456   0.432 -0.3503  0.2693 -2.1787
 1452SOL     OW 4354   2.890   2.164   3.943 -0.3594 -0.1536 -0.5872
 1452SOL    HW1 4355   2.893   2.161   4.039  1.5542  0.1661 -0.6015
 1452SOL    HW2 4356   2.980   2.180   3.917 -1.1282  1.5970 -2.3984
 1453SOL     OW 4357   0.032   1.412   0.071 -0.1423  0.1326  0.0275
 1453SOL    HW1 4358   0.116   1.431   0.030 -0.4006 -0.3966 -0.7721
 1453SOL    HW2 4359  -0.005   1.341   0.019 -0.2153 -1.0017  1.5329
 1454SOL     OW 4360   0.616   3.136   2.794  0.7924  0.0886  0.3776
 1454SOL    HW1 4361   0.584   3.223   2.771  1.5873 -0.5179 -3.7052
 1454SOL    HW2 4362   0.560   3.075   2.746  3.1489 -1.3627 -0.7463
 1455SOL     OW 4363   3.004   2.546   3.327  0.6247  0.1492 -0.1585
 1455SOL    HW1 4364   2.923   2.515   3.285  0.5703 -0.4272  0.3559
 1455SOL    HW2 4365   3.073   2.523   3.266  0.7417 -2.2304  0.7666
 1456SOL     OW 4366   0.938   1.756   1.586  0.1259 -0.1876  0.1715
 1456SOL    HW1 4367   0.890   1.673   1.593  1.1608 -0.8967 -0.8094
 1456SOL    HW2 4368   0.893   1.814   1.647  0.6760 -2.0829  2.5789
 1457SOL     OW 4369   2.773   0.193   3.090  0.5697  0.1069 -0.4117
 1457SOL    HW1 4370   2.744   0.197   3.181 -1.0785  0.8845 -0.9262
 1457SOL    HW2 4371   2.701   0.148   3.044  0.8933  0.6626 -1.4953
 1458SOL     OW 4372   1.157   2.803   2.610 -0.2982 -0.2000  0.0004
 1458SOL    HW1 4373   1.249   2.788   2.588  0.5170  1.4892  1.9609
 1458SOL    HW2 4374   1.148   2.767   2.699 -1.9694 -1.7384 -0.7331
 1459SOL     OW 4375   2.416   1.605   2.924 -0.6784  0.2307  0.2255
 1459SOL    HW1 4376   2.450   1.694   2.913 -1.2301  0.6823  1.8727
 1459SOL    HW2 4377   2.392   1.600   3.017 -0.5194 -1.7014  0.1944
 1460SOL     OW 4378   0.157   3.708   2.937 -0.3444  0.1352  0.5089
 1460SOL    HW1 4379   0.201   3.650   2.999 -2.4543  0.5306  2.4987
 1460SOL    HW2 4380   0.142   3.789   2.986 -0.9791  0.9375 -0.9279
 1461SOL     OW 4381   2.034   3.536   2.720 -0.2755 -0.3700  0.2119
 1461SOL    HW1 4382   2.088   3.467   2.681 -1.5020  0.5935 -3.5831
 1461SOL    HW2 4383   2.093   3.581   2.781  1.5075 -2.6791  0.3127
 1462SOL     OW 4384   3.647   0.352   0.058  0.0347 -0.7611  0.1070
 1462SOL    HW1 4385   3.742   0.363   0.056  0.1523 -1.7080  0.0119
 1462SOL    HW2 4386   3.621   0.356  -0.034 -0.0848 -0.0004  0.1699
 1463SOL     OW 4387   3.401   1.093   1.112 -0.1231  0.5537 -0.5494
 1463SOL    HW1 4388   3.429   1.017   1.061 -0.5652  1.4923 -2.2817
 1463SOL    HW2 4389   3.329   1.061   1.165  1.8442 -1.0294  1.3323
 1464SOL     OW 4390   2.552   2.122   3.147  0.5026 -0.2500 -0.2531
 1464SOL    HW1 4391   2.508   2.181   3.086 -0.1950 -0.0739  0.4002
 1464SOL    HW2 4392   2.549   2.036   3.104 -1.8434 -0.5585  0.3720
 1465SOL     OW 4393   0.740   0.646   1.931 -0.3022 -0.1754  0.1627
 1465SOL    HW1 4394   0.771   0.685   1.849  0.4477 -0.8743  0.0979
 1465SOL    HW2 4395   0.661   0.696   1.953 -0.1069  0.4966 -0.5993
 1466SOL     OW 4396   2.071   0.417   3.141 -0.5223 -0.2353  0.0948
 1466SOL    HW1 4397   2.113   0.503   3.143 -1.3121  0.1430  0.9818
 1466SOL    HW2 4398   2.139   0.357   3.172  0.1482  0.0034 -0.8667
 1467SOL     OW 4399   3.683   1.549   2.513  0.1527  0.0646 -0.6347
 1467SOL    HW1 4400   3.773   1.525   2.536 -0.2657 -0.6788  0.3114
 1467SOL    HW2 4401   3.674   1.639   2.542  0.2019 -0.2737  0.4545
 1468SOL     OW 4402   2.927   0.144   2.387  0.7901  0.0539  0.1993
 1468SOL    HW1 4403   2.898   0.069   2.336  1.4566  0.6334 -1.0726
 1468SOL    HW2 4404   2.851   0.201   2.392  0.7171 -0.0144 -0.1326
 1469SOL     OW 4405   3.665   2.077   1.865 -0.3045  0.4667  0.4584
 1469SOL    HW1 4406   3.611   2.143   1.909  0.2259  0.7577  0.6808
 1469SOL    HW2 4407   3.725   2.127   1.811 -0.7438  0.1194 -0.3725
 1470SOL     OW 4408   3.114   1.606   0.990  0.0751 -0.3138  0.3716
 1470SOL    HW1 4409   3.133   1.522   1.033  0.6235 -0.2269  0.3137
 1470SOL    HW2 4410   3.188   1.662   1.015  0.9478 -0.5619 -1.4828
 1471SOL     OW 4411   1.130   1.530   0.618 -0.2541  0.4649  0.0050
 1471SOL    HW1 4412   1.081   1.449   0.614 -1.4390  1.1807 -0.4114
 1471SOL    HW2 4413   1.185   1.528   0.540 -1.2845  0.6710 -0.7423
 1472SOL     OW 4414   1.984   3.295   0.869 -0.0732 -0.3438  0.3085
 1472SOL    HW1 4415   2.052   3.349   0.831  1.2776 -1.6365  0.8063
 1472SOL    HW2 4416   1.923   3.358   0.908  0.0545  0.8864 -1.3568
 1473SOL     OW 4417   0.088   0.180   3.590 -0.1363  0.3632 -0.3891
 1473SOL    HW1 4418   0.039   0.101   3.612 -0.1181  0.6454  0.7253
 1473SOL    HW2 4419   0.111   0.218   3.674  0.4433  1.2009 -0.9103
 1474SOL     OW 4420   3.732   1.209   1.602  0.5027 -0.5763 -0.3207
 1474SOL    HW1 4421   3.646   1.166   1.603  1.5087 -2.7728  1.2796
 1474SOL    HW2 4422   3.768   1.187   1.516 -0.2505 -0.1850 -0.7535
 1475SOL     OW 4423   2.472   1.562  -0.033  0.2057 -0.0711  0.5473
 1475SOL    HW1 4424   2.482   1.531   0.057  2.7227 -0.1495  0.2943
 1475SOL    HW2 4425   2.444   1.653  -0.023  1.7166  0.3263  1.4697
 1476SOL     OW 4426   2.697   0.711   3.916  0.4071 -0.7344  0.5456
 1476SOL    HW1 4427   2.773   0.693   3.971  0.5681 -0.5202  0.3945
 1476SOL    HW2 4428   2.638   0.637   3.932 -0.4555  0.3194  2.5686
 1477SOL     OW 4429   0.296   2.723   2.803  0.2978 -0.8320 -0.1180
 1477SOL    HW1 4430   0.221   2.772   2.837 -0.2885 -0.7561 -1.4499
 1477SOL    HW2 4431   0.258   2.664   2.737  1.2756 -1.5262 -0.0884
 1478SOL     OW 4432   0.907   1.864   1.321 -0.1853  0.8626  0.4298
 1478SOL    HW1 4433   0.829   1.899   1.366 -0.0041  1.2525  0.4479
 1478SOL    HW2 4434   0.953   1.814   1.388 -0.2197  0.9580  0.5257
 1479SOL     OW 4435   0.659   1.500   3.163 -0.3170  0.1725  0.1925
 1479SOL    HW1 4436   0.713   1.574   3.190 -2.2026  1.9360 -0.6362
 1479SOL    HW2 4437   0.653   1.445   3.242  1.4886  0.6138  0.6894
 1480SOL     OW 4438   2.147   1.072   3.896  0.1421  0.0037 -0.5559
 1480SOL    HW1 4439   2.069   1.066   3.841 -0.0864 -0.5484 -0.1876
 1480SOL    HW2 4440   2.142   1.158   3.936 -0.1407  0.0780 -0.7479
 1481SOL     OW 4441   0.603   2.874   1.291 -0.1155  0.1441 -0.3728
 1481SOL    HW1 4442   0.637   2.816   1.223 -4.0397 -2.2144 -0.6305
 1481SOL    HW2 4443   0.568   2.950   1.243  1.0840  0.6620 -0.4641
 1482SOL     OW 4444   3.419   3.864   2.929 -0.1246 -0.0445 -0.9367
 1482SOL    HW1 4445   3.364   3.920   2.983 -1.4322  0.0086 -2.2562
 1482SOL    HW2 4446   3.359   3.798   2.894  1.4092 -2.5641  0.8205
 1483SOL     OW 4447   0.602   3.857   3.771  0.6221  0.3056  0.0352
 1483SOL    HW1 4448   0.509   3.881   3.763  0.1215 -1.5416 -0.3428
 1483SOL    HW2 4449   0.635   3.860   3.681  0.6174 -0.0986  0.0164
 1484SOL     OW 4450   0.428   3.323   2.436  0.8103 -0.7267 -0.2147
 1484SOL    HW1 4451   0.460   3.278   2.357 -0.1593  0.9002 -1.6131
 1484SOL    HW2 4452   0.469   3.409   2.433  1.5706 -0.9833  1.6740
 1485SOL     OW 4453   3.232   3.501   1.659 -0.2572 -0.3496 -0.6298
 1485SOL    HW1 4454   3.291   3.427   1.642  0.2356  0.0742 -0.7983
 1485SOL    HW2 4455   3.144   3.466   1.644  0.0775 -0.1602 -3.5791
 1486SOL     OW 4456   2.165   0.167   3.503 -0.2981  0.3453 -0.4269
 1486SOL    HW1 4457   2.188   0.260   3.496 -1.9607  0.8718  0.4889
 1486SOL    HW2 4458   2.127   0.159   3.591 -1.0173 -0.9930 -0.8378
 1487SOL     OW 4459   1.477   1.168   0.169 -0.0439 -0.9471  0.2459
 1487SOL    HW1 4460   1.543   1.237   0.178 -2.4580  1.3251  1.7863
 1487SOL    HW2 4461   1.495   1.108   0.241  0.7563 -0.7814  0.1959
 1488SOL     OW 4462   3.237   1.320   2.318 -0.5409  0.5483  0.1763
 1488SOL    HW1 4463   3.185   1.337   2.397  2.4727  0.3849  2.3759
 1488SOL    HW2 4464   3.298   1.393   2.313  0.5811 -0.4219 -0.9225
 1489SOL     OW 4465   2.411   0.365   1.588 -0.4341 -0.3482  0.1472
 1489SOL    HW1 4466   2.401   0.322   1.503 -2.4210 -1.4908  0.8845
 1489SOL    HW2 4467   2.378   0.453   1.574 -0.3961 -0.4098 -0.3577
 1490SOL     OW 4468   2.017   2.384   3.424  0.4823 -0.0839 -0.1253
 1490SOL    HW1 4469   1.958   2.379   3.499  0.6211  1.4919  0.1259
 1490SOL    HW2 4470   1.972   2.440   3.361  0.4208 -1.2950 -1.2002
 1491SOL     OW 4471   3.109   1.727   0.706 -0.7454  0.1166 -0.2193
 1491SOL    HW1 4472   3.123   1.821   0.710  0.5262 -0.0873  0.4243
 1491SOL    HW2 4473   3.087   1.702   0.796 -0.0556 -0.3535 -0.1800
 1492SOL     OW 4474   3.681   0.802   2.235  0.6978  0.4223 -0.4425
 1492SOL    HW1 4475   3.705   0.732   2.174  2.9723 -0.0070  0.8081
 1492SOL    HW2 4476   3.703   0.767   2.321  1.6097  2.5373  0.2560
 1493SOL     OW 4477   0.871   3.044   0.985  0.2827  0.4369  0.0442
 1493SOL    HW1 4478   0.881   3.001   1.070  0.4467 -0.6098 -0.4848
 1493SOL    HW2 4479   0.803   3.109   0.999  0.9901  0.9497  1.2235
 1494SOL     OW 4480   2.689   2.741   1.964 -0.4374  0.3850  0.4034
 1494SOL    HW1 4481   2.604   2.698   1.977 -0.2373 -0.2832 -0.4671
 1494SOL    HW2 4482   2.697   2.752   1.869 -0.8051  3.0196  0.5822
 1495SOL     OW 4483   3.075   2.455   0.053  0.4844  0.3812  0.6689
 1495SOL    HW1 4484   3.025   2.530   0.021  0.4317  1.1473  2.3949
 1495SOL    HW2 4485   3.049   2.448   0.145  1.3798 -1.0413  0.8354
 1496SOL     OW 4486   3.547   0.448   2.211 -0.6279  0.3699  0.3919
 1496SOL    HW1 4487   3.592   0.469   2.292 -1.0133 -2.3030  1.4116
 1496SOL    HW2 4488   3.594   0.497   2.143 -0.2403  2.5926  2.1654
 1497SOL     OW 4489   0.646   3.811   0.655 -0.1215  0.2925  0.0147
 1497SOL    HW1 4490   0.603   3.865   0.589 -1.9685  1.8613  2.3330
 1497SOL    HW2 4491   0.693   3.873   0.711 -0.4838 -0.6955  1.4847
 1498SOL     OW 4492   3.049   2.846   0.195  0.0191  0.2102  0.1799
 1498SOL    HW1 4493   3.016   2.809   0.113 -2.8901  0.8107  0.9579
 1498SOL    HW2 4494   3.050   2.772   0.256  1.3200 -0.0460 -0.1218
 1499SOL     OW 4495   0.989   3.424   0.825 -0.4709  0.1728 -0.3958
 1499SOL    HW1 4496   1.073   3.467   0.811 -0.9458  1.2780  0.0879
 1499SOL    HW2 4497   0.959   3.400   0.737 -0.4509  1.3234 -0.7294
 1500SOL     OW 4498   2.906   0.855   1.753 -0.2816 -0.4402 -0.5292
 1500SOL    HW1 4499   2.925   0.914   1.826 -0.6994 -1.4517  0.4262
 1500SOL    HW2 4500   2.944   0.898   1.676  1.4213 -0.0292  0.4958
 1501SOL     OW 4501   1.945   2.272   1.160 -0.6679 -0.1382 -1.0965
 1501SOL    HW1 4502   1.901   2.356   1.144  2.5875  1.8015 -0.7148
 1501SOL    HW2 4503   1.884   2.223   1.216 -3.5561  1.0518 -2.9589
 1502SOL     OW 4504   0.288   0.616   3.736 -0.2437 -0.9197 -0.1816
 1502SOL    HW1 4505   0.331   0.549   3.682  2.4099  0.8287 -0.4564
 1502SOL    HW2 4506   0.267   0.686   3.675  1.8682  0.6507  0.7667
 1503SOL     OW 4507   0.879   2.914   0.023 -0.1053  0.0521 -0.2865
 1503SOL    HW1 4508   0.920   2.918  -0.063  1.0319 -0.0525  0.2338
 1503SOL    HW2 4509   0.901   2.997   0.065  1.2882 -0.7740  0.7294
 1504SOL     OW 4510   0.187   2.056   1.122  0.2732 -0.1216  0.2651
 1504SOL    HW1 4511   0.242   2.113   1.068  0.2383 -0.1486  0.2001
 1504SOL    HW2 4512   0.115   2.112   1.150 -0.3513 -0.4082 -0.7038
 1505SOL     OW 4513   3.283   3.523   3.619  0.2847  0.1791 -0.3425
 1505SOL    HW1 4514   3.307   3.616   3.611  0.7777  0.0816  0.0062
 1505SOL    HW2 4515   3.212   3.523   3.683 -0.4550  0.4300 -1.1387
 1506SOL     OW 4516   0.546   1.167   0.202 -0.1124 -0.4135  0.2920
 1506SOL    HW1 4517   0.549   1.110   0.279  0.3553 -0.8497 -0.0396
 1506SOL    HW2 4518   0.556   1.255   0.236  1.3960 -0.6962  0.6237
 1507SOL     OW 4519   3.593   0.815   3.708  0.0523 -0.5413  0.3702
 1507SOL    HW1 4520   3.559   0.857   3.629 -0.7276 -1.6479  0.0953
 1507SOL    HW2 4521   3.688   0.829   3.703 -0.2117  1.7336  0.6438
 1508SOL     OW 4522   1.333   3.090   3.856  0.3606  0.6464  0.7529
 1508SOL    HW1 4523   1.349   3.030   3.928  1.8849  2.3188  1.9044
 1508SOL    HW2 4524   1.418   3.103   3.815 -0.2726  0.6268 -0.6269
 1509SOL     OW 4525   1.484   1.545   2.967  0.3104 -0.0158 -0.4191
 1509SOL    HW1 4526   1.479   1.641   2.968  0.0574 -0.0163  1.0511
 1509SOL    HW2 4527   1.393   1.517   2.951  0.4565 -0.0191 -1.2751
 1510SOL     OW 4528   2.828   1.603   1.349 -0.7524 -0.4206 -0.2641
 1510SOL    HW1 4529   2.817   1.691   1.313 -1.5730 -0.4892 -0.1888
 1510SOL    HW2 4530   2.835   1.616   1.443 -0.7435 -0.4253 -0.2642
 1511SOL     OW 4531   3.264   0.291   0.683  0.1167 -0.0801  0.1182
 1511SOL    HW1 4532   3.200   0.336   0.739 -1.5831 -1.9505 -0.2156
 1511SOL    HW2 4533   3.339   0.349   0.682 -0.0096  0.4221  3.8015
 1512SOL     OW 4534   0.550   3.291   1.857  0.2352 -0.0413 -0.2625
 1512SOL    HW1 4535   0.628   3.337   1.889 -0.1116  0.1232  0.3476
 1512SOL    HW2 4536   0.480   3.319   1.916 -0.1461 -0.7166 -0.3952
 1513SOL     OW 4537   1.117   0.065   2.156  0.3539  0.1021  0.1360
 1513SOL    HW1 4538   1.058   0.131   2.120  0.1018 -0.2632 -0.1305
 1513SOL    HW2 4539   1.148   0.103   2.238 -0.3530  0.2471  0.3425
 1514SOL     OW 4540   0.288   1.161   2.306 -0.4314  0.1534  0.8814
 1514SOL    HW1 4541   0.370   1.135   2.349 -0.1651  2.9354  2.2337
 1514SOL    HW2 4542   0.220   1.144   2.371 -0.6594 -0.0996  0.5788
 1515SOL     OW 4543   2.643   3.262   3.886 -0.0399  0.1497  0.2487
 1515SOL    HW1 4544   2.639   3.308   3.802  0.1061  1.1297  0.7711
 1515SOL    HW2 4545   2.731   3.223   3.888 -0.4064 -0.7618 -0.4954
 1516SOL     OW 4546   1.689   0.957   2.506 -0.3322  0.1803  0.7825
 1516SOL    HW1 4547   1.735   0.979   2.424 -1.4776 -1.1354 -0.2503
 1516SOL    HW2 4548   1.760   0.944   2.570  0.7074 -0.7319 -0.4961
 1517SOL     OW 4549   3.188   3.711   1.839 -0.0250 -0.0305  0.6496
 1517SOL    HW1 4550   3.109   3.753   1.804  0.0193  0.2302  0.8606
 1517SOL    HW2 4551   3.209   3.643   1.775 -1.5073 -1.3791  1.5259
 1518SOL     OW 4552   0.596   2.340   0.727 -0.1051  0.1695  0.1145
 1518SOL    HW1 4553   0.688   2.321   0.746 -0.1115 -0.3815 -0.3438
 1518SOL    HW2 4554   0.559   2.255   0.704 -1.3130 -0.0147  2.5322
 1519SOL     OW 4555   1.205   3.423   0.136  0.3592  0.4507 -0.4613
 1519SOL    HW1 4556   1.112   3.414   0.118  0.0056  2.6084 -0.0931
 1519SOL    HW2 4557   1.212   3.411   0.231  0.3690  0.7228 -0.4253
 1520SOL     OW 4558   3.338   1.521   3.162  0.0261 -0.3009 -0.1970
 1520SOL    HW1 4559   3.379   1.585   3.105 -0.1654  1.2345  1.3233
 1520SOL    HW2 4560   3.248   1.552   3.171  0.4597  0.4460  2.1966
 1521SOL     OW 4561   1.548   1.295   2.841  0.8689  0.3646  0.1838
 1521SOL    HW1 4562   1.500   1.367   2.880 -0.1002  0.1768 -0.6221
 1521SOL    HW2 4563   1.586   1.332   2.761  0.1905 -0.0562 -0.3450
 1522SOL     OW 4564   1.432   2.759   2.895 -0.1858 -0.1861  0.0902
 1522SOL    HW1 4565   1.526   2.759   2.914 -0.3841 -1.2506  1.1760
 1522SOL    HW2 4566   1.427   2.780   2.801  1.2038 -1.1079 -0.2345
 1523SOL     OW 4567   2.236   2.782   1.792  0.0657 -0.2149  0.1264
 1523SOL    HW1 4568   2.274   2.786   1.704 -2.9174  0.0941 -1.2660
 1523SOL    HW2 4569   2.169   2.714   1.786 -1.0863  0.7150  1.7857
 1524SOL     OW 4570   2.574   3.519   0.997 -0.1562 -0.9849 -0.3682
 1524SOL    HW1 4571   2.543   3.593   1.048 -0.3843 -1.7836  0.6765
 1524SOL    HW2 4572   2.667   3.538   0.982 -0.7759  0.8369 -2.5145
 1525SOL     OW 4573   2.407   1.539   1.404 -0.5280  0.2608 -0.1678
 1525SOL    HW1 4574   2.346   1.465   1.412  0.1422 -0.2783  0.0599
 1525SOL    HW2 4575   2.494   1.500   1.412 -0.1447  1.0245 -0.4530
 1526SOL     OW 4576   3.455   1.106   2.810  0.2281  0.6211 -0.9790
 1526SOL    HW1 4577   3.459   1.058   2.727  2.1055  1.6996 -1.5980
 1526SOL    HW2 4578   3.546   1.108   2.840 -0.6988 -2.6836  2.9719
 1527SOL     OW 4579   1.564   2.526   0.180  0.0946 -0.2163  0.5803
 1527SOL    HW1 4580   1.644   2.565   0.143  0.1175 -0.9246 -0.1466
 1527SOL    HW2 4581   1.494   2.555   0.122 -0.1684  0.2991  1.1455
 1528SOL     OW 4582   0.141   0.191   2.499 -0.0707  0.4243 -0.0184
 1528SOL    HW1 4583   0.050   0.188   2.471  0.0995 -0.6147 -0.4864
 1528SOL    HW2 4584   0.136   0.215   2.592 -0.8100  0.4109 -0.0479
 1529SOL     OW 4585   3.253   2.076   2.650  0.4422 -0.3396  0.0113
 1529SOL    HW1 4586   3.274   2.168   2.667  0.3515  0.3444 -3.0018
 1529SOL    HW2 4587   3.211   2.046   2.731  1.4119  1.9334  1.4758
 1530SOL     OW 4588   0.213   0.878   0.924  0.0525  0.5115 -0.3230
 1530SOL    HW1 4589   0.131   0.916   0.891  0.2665  1.2859  0.0087
 1530SOL    HW2 4590   0.195   0.785   0.932 -1.2486  0.8392  1.0237
 1531SOL     OW 4591   2.839   2.196   1.068 -0.0733 -0.0205 -0.1671
 1531SOL    HW1 4592   2.804   2.285   1.064 -0.5287 -0.2375 -2.2029
 1531SOL    HW2 4593   2.790   2.154   1.138 -0.9458  0.8890 -0.2052
 1532SOL     OW 4594   0.986   3.312   2.143  0.1279 -0.2001  0.0745
 1532SOL    HW1 4595   1.032   3.232   2.116  0.0690 -0.1808 -0.0833
 1532SOL    HW2 4596   0.911   3.280   2.193  0.1504 -0.2407  0.0825
 1533SOL     OW 4597   3.983   2.716   1.230 -0.2170  0.2724  0.2504
 1533SOL    HW1 4598   3.941   2.764   1.159 -0.0778 -0.7100 -0.5234
 1533SOL    HW2 4599   4.047   2.660   1.186 -0.9054 -1.1831  1.0468
 1534SOL     OW 4600   1.733   1.173   3.639 -0.6893  0.2069  0.0339
 1534SOL    HW1 4601   1.669   1.242   3.648  0.1076  0.8114  1.3946
 1534SOL    HW2 4602   1.786   1.198   3.564 -0.2735  1.2093  0.6466
 1535SOL     OW 4603   3.656   3.111   2.121 -0.4234 -0.5202  0.0849
 1535SOL    HW1 4604   3.628   3.156   2.200 -0.5784  1.7591 -1.1941
 1535SOL    HW2 4605   3.583   3.053   2.099 -1.6399  0.9463  0.0785
 1536SOL     OW 4606   3.525   2.094   3.864  0.2155 -0.3248 -0.1695
 1536SOL    HW1 4607   3.553   2.047   3.942 -0.0410 -0.3878 -0.1139
 1536SOL    HW2 4608   3.439   2.057   3.843 -1.5520  2.2880  1.7556
 1537SOL     OW 4609   0.477   0.869   1.506  0.3252 -0.2569  0.1611
 1537SOL    HW1 4610   0.525   0.921   1.442 -0.2556  0.2010  0.0866
 1537SOL    HW2 4611   0.407   0.827   1.455 -0.4724  0.5348  0.5729
 1538SOL     OW 4612   1.350   3.464   2.518  0.1987 -0.1744 -0.4181
 1538SOL    HW1 4613   1.322   3.403   2.451  0.1045 -1.2880  0.5949
 1538SOL    HW2 4614   1.408   3.525   2.473 -1.7099  0.5653 -1.9879
 1539SOL     OW 4615   1.098   0.437   0.288  0.4533  0.4127 -0.2075
 1539SOL    HW1 4616   1.093   0.427   0.383  0.1490  2.4534  0.0336
 1539SOL    HW2 4617   1.176   0.388   0.263  0.9105  0.3895  1.1901
 1540SOL     OW 4618   0.186   0.263   0.582 -0.7033  0.1110  0.0159
 1540SOL    HW1 4619   0.131   0.195   0.621  0.5816 -1.1096 -0.2081
 1540SOL    HW2 4620   0.211   0.319   0.656 -1.4284  0.1017  0.2753
 1541SOL     OW 4621   2.621   1.976   1.676 -0.4325 -0.3762  0.1603
 1541SOL    HW1 4622   2.572   1.904   1.714  0.8571 -1.7603 -0.6917
 1541SOL    HW2 4623   2.558   2.022   1.621 -1.0310 -1.5309 -0.1515
 1542SOL     OW 4624   0.240   0.172   3.329  0.1992  0.4093 -0.0770
 1542SOL    HW1 4625   0.222   0.172   3.423  0.8886  1.9641  0.0881
 1542SOL    HW2 4626   0.161   0.136   3.289  0.4719 -1.7259  1.1620
 1543SOL     OW 4627   1.225   3.549   0.979 -0.0344 -0.5178  0.5134
 1543SOL    HW1 4628   1.315   3.542   0.947  0.1858 -0.2331  1.0468
 1543SOL    HW2 4629   1.233   3.539   1.074 -0.4075  0.7314  0.7025
 1544SOL     OW 4630   3.931   1.479   1.623 -0.0819  0.0569 -0.0947
 1544SOL    HW1 4631   4.000   1.542   1.646  0.1624 -0.2734  0.0935
 1544SOL    HW2 4632   3.873   1.479   1.699  1.8719 -2.6156  1.5602
 1545SOL     OW 4633   2.923   1.193   3.489 -0.4393 -0.6869 -0.3140
 1545SOL    HW1 4634   2.864   1.268   3.488  0.3334 -0.0623 -1.7466
 1545SOL    HW2 4635   2.888   1.135   3.557 -1.6958  0.4438  0.0284
 1546SOL     OW 4636   3.425   0.841   1.581 -0.1226  0.3098 -0.1386
 1546SOL    HW1 4637   3.520   0.837   1.598 -0.4280  1.1679  2.0535
 1546SOL    HW2 4638   3.402   0.933   1.593 -1.3310  0.0170 -0.1143
 1547SOL     OW 4639   1.820   0.337   3.110 -0.2853  0.3545 -0.4759
 1547SOL    HW1 4640   1.911   0.367   3.110 -0.9010  2.4138  0.6124
 1547SOL    HW2 4641   1.813   0.278   3.185  0.4645 -1.0806 -1.4722
 1548SOL     OW 4642   3.339   1.564   0.645 -0.0919  0.9247 -0.1591
 1548SOL    HW1 4643   3.385   1.520   0.716 -0.4698  2.0262  0.8153
 1548SOL    HW2 4644   3.266   1.610   0.688 -2.3663 -1.0156 -1.6669
 1549SOL     OW 4645   0.033   3.603   2.188  0.2203 -0.1416 -0.1652
 1549SOL    HW1 4646   0.128   3.605   2.177  0.2987 -1.7493  0.0055
 1549SOL    HW2 4647   0.002   3.546   2.117 -0.7949  1.6267 -1.1937
 1550SOL     OW 4648   2.979   3.606   1.641  0.0511 -0.3553  0.7310
 1550SOL    HW1 4649   3.012   3.578   1.555  0.7128 -0.8444  1.1408
 1550SOL    HW2 4650   2.908   3.545   1.660 -0.8429  0.4332  0.0446
 1551SOL     OW 4651   1.257   3.992   3.149 -0.5217 -0.7079  0.0727
 1551SOL    HW1 4652   1.255   4.066   3.090 -0.3364 -0.7119  0.0596
 1551SOL    HW2 4653   1.312   3.927   3.105 -0.0770 -0.5684  0.4090
 1552SOL     OW 4654   3.417   1.370   2.592 -0.2167  0.3453 -0.6572
 1552SOL    HW1 4655   3.492   1.397   2.540  1.1526 -1.5033  0.2502
 1552SOL    HW2 4656   3.422   1.424   2.671  0.8313 -0.5119 -0.1151
 1553SOL     OW 4657   2.392   2.024   0.666  0.0636 -0.1298 -0.3441
 1553SOL    HW1 4658   2.413   2.041   0.757 -0.3857 -0.4297 -0.1779
 1553SOL    HW2 4659   2.476   2.003   0.625  0.3172  0.3885 -0.0883
 1554SOL     OW 4660   3.856   3.476   2.375 -0.1943  0.6154  0.9034
 1554SOL    HW1 4661   3.770   3.499   2.338 -0.2522  0.6341  1.0506
 1554SOL    HW2 4662   3.919   3.520   2.318 -0.1776 -1.1170 -0.5274
 1555SOL     OW 4663   1.953   0.248   3.657  0.0333  0.1295 -0.5193
 1555SOL    HW1 4664   2.000   0.330   3.639  4.2682 -2.0753 -0.6325
 1555SOL    HW2 4665   1.908   0.265   3.740 -0.6103  3.0049 -1.3199
 1556SOL     OW 4666   2.710   0.562   2.216  0.3730 -0.1309 -0.2514
 1556SOL    HW1 4667   2.793   0.600   2.244  0.8957 -0.7994 -0.8658
 1556SOL    HW2 4668   2.730   0.469   2.200 -0.8819 -0.7136  1.2822
 1557SOL     OW 4669   3.174  -0.020   1.154  0.1122 -0.3607 -0.6444
 1557SOL    HW1 4670   3.268  -0.034   1.142 -0.1397 -1.1366 -1.9540
 1557SOL    HW2 4671   3.155   0.060   1.105 -0.0865 -0.8339 -1.3611
 1558SOL     OW 4672   3.921   0.463   1.122 -0.3553 -0.3410  0.1709
 1558SOL    HW1 4673   3.833   0.443   1.155 -0.8961 -0.2327 -1.1700
 1558SOL    HW2 4674   3.933   0.405   1.048  1.2609 -1.3040  1.1268
 1559SOL     OW 4675   2.510   0.228   0.132  0.1484 -0.5783 -0.7143
 1559SOL    HW1 4676   2.502   0.227   0.036  1.5432 -1.5182 -0.8443
 1559SOL    HW2 4677   2.435   0.177   0.162 -0.5788  0.1356 -1.2692
 1560SOL     OW 4678   3.043   3.590   3.202  0.0638  0.1656 -0.3872
 1560SOL    HW1 4679   3.043   3.681   3.231 -0.1857 -0.3998  1.5005
 1560SOL    HW2 4680   2.961   3.581   3.153 -0.2255  0.7964 -0.0278
 1561SOL     OW 4681   2.684   0.635   3.483  0.1642  0.4646 -0.4463
 1561SOL    HW1 4682   2.762   0.691   3.487  0.8206 -0.4432 -0.3841
 1561SOL    HW2 4683   2.671   0.619   3.389  1.3996 -1.2083 -0.3717
 1562SOL     OW 4684   2.410   2.571   0.092  0.0594 -0.4548  0.1529
 1562SOL    HW1 4685   2.346   2.641   0.106  0.9973  0.2170  1.3641
 1562SOL    HW2 4686   2.450   2.558   0.179  2.0367 -0.3440 -0.6779
 1563SOL     OW 4687   2.992   3.243   0.137  0.3624  0.1604  0.6855
 1563SOL    HW1 4688   3.079   3.229   0.174 -0.3796 -1.7414  1.8789
 1563SOL    HW2 4689   2.933   3.194   0.195 -1.5494  1.6209  0.0889
 1564SOL     OW 4690   3.030   3.621   0.277  0.6996  0.8447 -0.4073
 1564SOL    HW1 4691   3.079   3.549   0.316 -0.8661  0.1940  0.4527
 1564SOL    HW2 4692   3.041   3.610   0.183  3.0452  1.3666 -0.2503
 1565SOL     OW 4693   1.555   2.166   0.740 -0.2389  0.4376 -0.4086
 1565SOL    HW1 4694   1.482   2.127   0.693 -0.1056 -0.0871 -0.1889
 1565SOL    HW2 4695   1.632   2.120   0.707 -0.1207  0.2283  0.1424
 1566SOL     OW 4696   0.013   1.592   3.083 -0.5107 -0.2146  0.6472
 1566SOL    HW1 4697   0.011   1.674   3.035 -1.0801 -0.4634  0.2291
 1566SOL    HW2 4698   0.041   1.527   3.019 -0.4138 -0.4057  0.8801
 1567SOL     OW 4699   2.534   3.768   1.804 -0.6385 -0.1437  0.0946
 1567SOL    HW1 4700   2.591   3.782   1.729  0.9701  0.1324  1.3153
 1567SOL    HW2 4701   2.504   3.856   1.828  0.2258 -0.0158  0.7764
 1568SOL     OW 4702   1.184   3.566   3.174  0.4749 -0.1321 -0.6380
 1568SOL    HW1 4703   1.160   3.593   3.085 -0.8059  1.3130  0.0942
 1568SOL    HW2 4704   1.180   3.647   3.225  1.1485 -0.9442  0.7546
 1569SOL     OW 4705   2.146   3.898   1.573  0.7716  0.2386  0.0174
 1569SOL    HW1 4706   2.160   3.805   1.554  1.7808  0.2748  0.5385
 1569SOL    HW2 4707   2.229   3.940   1.552  0.6693  0.8595  0.8040
 1570SOL     OW 4708   3.709   3.843   0.595 -0.3232 -0.1280 -0.0021
 1570SOL    HW1 4709   3.630   3.795   0.617  0.6786 -1.5475  0.5941
 1570SOL    HW2 4710   3.752   3.790   0.527  0.1615  0.5888 -0.2760
 1571SOL     OW 4711   1.484   0.924   1.576 -0.0672 -0.5750 -0.5044
 1571SOL    HW1 4712   1.551   0.857   1.583  0.3363 -0.1053  0.1668
 1571SOL    HW2 4713   1.481   0.944   1.482 -0.7337 -2.0548 -0.8320
 1572SOL     OW 4714   0.721   2.957   3.413  0.2397  0.6572 -0.4324
 1572SOL    HW1 4715   0.775   3.031   3.387 -1.8803  2.7656  0.8414
 1572SOL    HW2 4716   0.743   2.940   3.504 -0.4762  0.8551 -0.2122
 1573SOL     OW 4717   0.584   2.785   3.201 -0.1545  0.0036  0.5133
 1573SOL    HW1 4718   0.567   2.844   3.127 -0.2615  0.5687  0.9752
 1573SOL    HW2 4719   0.636   2.838   3.262 -0.7052 -0.1999  1.1767
 1574SOL     OW 4720   2.578   1.362   1.656  0.3399  0.0784 -0.5184
 1574SOL    HW1 4721   2.650   1.316   1.698 -1.3307 -1.4132  0.8965
 1574SOL    HW2 4722   2.596   1.358   1.563  0.6743 -2.8265 -0.4025
 1575SOL     OW 4723   2.837   1.132   3.241 -0.3867  0.1672 -0.1532
 1575SOL    HW1 4724   2.745   1.150   3.261 -0.1383  1.1935  0.1274
 1575SOL    HW2 4725   2.878   1.119   3.327  0.3817  3.0926  0.0434
 1576SOL     OW 4726   2.371   1.019   0.350  0.3609  0.0663  0.0212
 1576SOL    HW1 4727   2.456   1.022   0.305  0.0044  2.6746 -0.6468
 1576SOL    HW2 4728   2.311   0.984   0.284  0.9498 -2.2896  0.6658
 1577SOL     OW 4729   0.722   1.048   3.567  0.6414  0.6610 -0.0725
 1577SOL    HW1 4730   0.733   1.135   3.603  0.7508  0.7540 -0.3309
 1577SOL    HW2 4731   0.811   1.015   3.554  0.6301 -0.2117  1.7444
 1578SOL     OW 4732   3.270   2.258   2.961  0.1836 -0.0003 -0.3433
 1578SOL    HW1 4733   3.290   2.272   3.053 -1.3672  1.7938 -0.2375
 1578SOL    HW2 4734   3.282   2.164   2.948  0.5977 -0.2534  1.6317
 1579SOL     OW 4735   3.614   2.249   0.128 -0.1920 -0.1033 -0.2293
 1579SOL    HW1 4736   3.631   2.170   0.077 -3.0888 -1.3407  0.5193
 1579SOL    HW2 4737   3.543   2.225   0.188  0.7838  2.2418  2.0895
 1580SOL     OW 4738   1.073   3.989   1.344  0.1361 -0.9587 -0.3385
 1580SOL    HW1 4739   1.068   3.928   1.270 -0.7706 -2.4153  0.8619
 1580SOL    HW2 4740   0.998   3.966   1.399  1.0574 -0.2397  1.2888
 1581SOL     OW 4741   3.866   3.580   1.645  0.5727  0.1270  0.5617
 1581SOL    HW1 4742   3.779   3.587   1.606  0.0987 -0.5858  1.4326
 1581SOL    HW2 4743   3.910   3.513   1.593  0.3800  0.0723  0.4672
 1582SOL     OW 4744   2.788   2.429   2.116  0.0301 -0.2760  0.1864
 1582SOL    HW1 4745   2.715   2.389   2.163 -0.7282 -0.8146 -1.3571
 1582SOL    HW2 4746   2.836   2.355   2.079 -1.2041  0.0987 -2.4360
 1583SOL     OW 4747   2.854   1.855   0.193 -0.4965  0.0159 -0.4026
 1583SOL    HW1 4748   2.798   1.845   0.116  1.0346  0.7437 -1.6863
 1583SOL    HW2 4749   2.904   1.774   0.197 -0.1270  0.2330 -0.5628
 1584SOL     OW 4750   1.529   0.544   1.373 -0.2527  0.1894  0.1669
 1584SOL    HW1 4751   1.483   0.462   1.390 -0.9621  0.4299 -0.5197
 1584SOL    HW2 4752   1.465   0.598   1.327 -0.2414  1.5946  1.6754
 1585SOL     OW 4753   1.283   1.371   0.115  0.3562  0.2628 -0.1396
 1585SOL    HW1 4754   1.336   1.294   0.136 -0.3391  0.1364  1.2560
 1585SOL    HW2 4755   1.328   1.412   0.041  0.1870 -2.0446 -1.6298
 1586SOL     OW 4756   2.506   3.454   1.641  0.3943  0.2051 -0.0302
 1586SOL    HW1 4757   2.465   3.499   1.716  2.0291  1.1244  0.3707
 1586SOL    HW2 4758   2.520   3.365   1.672 -1.2084 -0.1180 -0.1606
 1587SOL     OW 4759   3.912   1.216   2.799  0.2221  0.1789  0.3265
 1587SOL    HW1 4760   3.835   1.220   2.856  0.1053 -0.1308  0.1955
 1587SOL    HW2 4761   3.930   1.122   2.790  0.2811  0.2295 -0.0921
 1588SOL     OW 4762   1.194   1.390   1.344  0.2076 -0.2813  0.0002
 1588SOL    HW1 4763   1.249   1.443   1.401 -1.8521  3.9674 -1.5881
 1588SOL    HW2 4764   1.150   1.329   1.404  1.7110  0.6591  2.1878
 1589SOL     OW 4765   3.174   2.916   3.649 -0.5458  0.9635 -0.0206
 1589SOL    HW1 4766   3.127   2.963   3.581  0.2325  1.5414 -0.1771
 1589SOL    HW2 4767   3.251   2.879   3.605 -1.7912 -1.6256 -0.2078
 1590SOL     OW 4768   0.175   2.209   0.804  0.4732 -0.1567  0.0271
 1590SOL    HW1 4769   0.173   2.305   0.797  3.7612 -0.0141 -0.6661
 1590SOL    HW2 4770   0.259   2.190   0.847  0.2950 -2.7474 -0.6102
 1591SOL     OW 4771   0.394   1.654   1.981 -0.3480  0.4520 -0.0179
 1591SOL    HW1 4772   0.414   1.726   1.921 -0.2574  1.7498  1.4940
 1591SOL    HW2 4773   0.343   1.593   1.928 -1.0856  1.9798 -1.1785
 1592SOL     OW 4774   2.334   3.109   2.688  0.1407 -0.2736  0.3324
 1592SOL    HW1 4775   2.366   3.139   2.603  1.2497 -0.7189  0.5676
 1592SOL    HW2 4776   2.407   3.127   2.748 -0.5043 -0.2519  1.1302
 1593SOL     OW 4777   0.524   0.607   2.148 -0.1901  0.7431 -0.3458
 1593SOL    HW1 4778   0.451   0.668   2.143 -0.7891  0.0317 -0.3986
 1593SOL    HW2 4779   0.600   0.663   2.165 -1.0047  1.3506  1.7102
 1594SOL     OW 4780   2.272   3.800   0.201 -0.7656 -0.5442  0.3518
 1594SOL    HW1 4781   2.357   3.757   0.197 -0.5479 -0.0401 -0.7309
 1594SOL    HW2 4782   2.209   3.730   0.187 -0.4681 -0.7349 -0.0685
 1595SOL     OW 4783   0.400   0.966   3.113  0.8330  0.2113 -0.3718
 1595SOL    HW1 4784   0.464   0.911   3.158  1.4795  0.4113 -1.0213
 1595SOL    HW2 4785   0.318   0.918   3.120  1.1902 -0.3698 -0.0925
 1596SOL     OW 4786   3.938   0.138   0.734 -0.3044 -0.2942  0.4357
 1596SOL    HW1 4787   3.980   0.059   0.700 -1.8691 -0.5912 -0.9123
 1596SOL    HW2 4788   3.889   0.174   0.660 -0.7169  1.2111  1.3810
 1597SOL     OW 4789   0.040   1.492   1.217  0.1758  0.3291  0.4916
 1597SOL    HW1 4790   0.108   1.540   1.264  1.1927 -1.4882  0.9403
 1597SOL    HW2 4791   0.025   1.544   1.137 -0.0249  2.2883  1.7286
 1598SOL     OW 4792   1.152   3.073   1.262 -0.1846 -0.1574 -0.0320
 1598SOL    HW1 4793   1.095   3.071   1.339 -0.0528 -1.1644  0.0558
 1598SOL    HW2 4794   1.237   3.098   1.296 -0.6623  1.8622 -0.2406
 1599SOL     OW 4795   3.155   2.015   1.586  0.2386  0.2807  0.2807
 1599SOL    HW1 4796   3.130   2.106   1.605  0.9533  1.6874 -4.2765
 1599SOL    HW2 4797   3.251   2.015   1.594  0.0796 -1.0383  3.2280
 1600SOL     OW 4798   1.046   1.410   3.335  0.5688 -0.0875  0.1378
 1600SOL    HW1 4799   1.051   1.331   3.389 -0.5568 -1.3531 -1.5128
 1600SOL    HW2 4800   1.029   1.481   3.397 -0.1171 -1.3945  1.4844
 1601SOL     OW 4801   3.619   2.973   1.858  0.1745 -0.1005 -0.4694
 1601SOL    HW1 4802   3.561   2.923   1.916 -0.8556  1.6789  0.1175
 1601SOL    HW2 4803   3.686   3.008   1.916  0.6541 -0.4507 -0.8066
 1602SOL     OW 4804   3.360   2.869   2.975  0.1293  0.0425 -0.0719
 1602SOL    HW1 4805   3.266   2.853   2.981  0.5640 -2.9065  0.6350
 1602SOL    HW2 4806   3.372   2.955   3.014 -2.2257  0.2886  0.2564
 1603SOL     OW 4807   1.441   3.393   0.003 -0.3702 -0.1842  0.0288
 1603SOL    HW1 4808   1.352   3.399   0.038  0.0202  0.4626  0.9398
 1603SOL    HW2 4809   1.494   3.365   0.078  0.3937  0.6854 -0.1816
 1604SOL     OW 4810   3.535   2.291   0.947  0.2094  0.3055 -0.1703
 1604SOL    HW1 4811   3.583   2.303   0.865  3.1614 -0.9064  1.2340
 1604SOL    HW2 4812   3.585   2.341   1.011 -0.6329 -0.7420  1.3537
 1605SOL     OW 4813   1.928   2.525   3.221 -0.0676  0.0198 -0.2480
 1605SOL    HW1 4814   1.838   2.493   3.213 -0.3690  0.7540  0.1131
 1605SOL    HW2 4815   1.919   2.613   3.257  0.7914  0.1726 -0.3886
 1606SOL     OW 4816   1.849   0.481   0.838  0.2515  0.3722  0.0404
 1606SOL    HW1 4817   1.791   0.521   0.902  1.3854  0.8948  0.7749
 1606SOL    HW2 4818   1.904   0.554   0.807 -0.8806  0.3471 -2.2513
 1607SOL     OW 4819   2.884   2.317   3.432  0.0462  0.0412  0.0888
 1607SOL    HW1 4820   2.846   2.346   3.349  1.0149  0.6048 -0.1838
 1607SOL    HW2 4821   2.813   2.273   3.478 -1.1194  1.6941 -0.0671
 1608SOL     OW 4822   0.052   2.722   0.623 -0.5116 -0.9430 -0.3939
 1608SOL    HW1 4823   0.034   2.630   0.646 -2.6249  0.3989  4.6133
 1608SOL    HW2 4824  -0.026   2.750   0.576 -0.4484 -1.3114 -0.7327
 1609SOL     OW 4825   2.674   2.784   0.176  0.3361 -0.4696 -0.0862
 1609SOL    HW1 4826   2.639   2.857   0.126 -1.0985 -1.3279 -0.3995
 1609SOL    HW2 4827   2.689   2.716   0.110  0.4254 -0.8900  0.3676
 1610SOL     OW 4828   3.712   2.410   0.442  0.1365 -0.2450  0.0996
 1610SOL    HW1 4829   3.795   2.444   0.409 -0.2456  0.0294 -0.5713
 1610SOL    HW2 4830   3.696   2.331   0.390  2.1980 -2.9458  3.1449
 1611SOL     OW 4831   0.976   2.029   3.343  0.7191 -0.3188 -0.2660
 1611SOL    HW1 4832   0.891   1.993   3.369  0.4684 -0.1730 -0.8774
 1611SOL    HW2 4833   1.036   1.954   3.349  0.3569 -0.6540 -0.7560
 1612SOL     OW 4834   3.545   1.879   1.437  0.0139  0.3699 -0.1491
 1612SOL    HW1 4835   3.469   1.894   1.381  0.4070  0.7515 -0.5811
 1612SOL    HW2 4836   3.559   1.962   1.481 -1.5776 -0.4789  2.1507
 1613SOL     OW 4837   3.411   0.209   0.405  0.3744  0.2090 -0.5114
 1613SOL    HW1 4838   3.432   0.216   0.498 -1.2435  1.0482 -0.1843
 1613SOL    HW2 4839   3.351   0.281   0.388 -0.9733 -1.1335 -1.7282
 1614SOL     OW 4840   3.679   0.337   1.488  0.6825 -0.9468 -0.1014
 1614SOL    HW1 4841   3.641   0.313   1.573  2.3030  0.4948  1.1050
 1614SOL    HW2 4842   3.709   0.427   1.500  1.0456 -0.7458 -2.2012
 1615SOL     OW 4843   2.747   2.098   0.809  0.5060 -0.4283  0.9438
 1615SOL    HW1 4844   2.800   2.124   0.884  0.9925 -0.2427  0.5420
 1615SOL    HW2 4845   2.768   2.006   0.795  1.6164 -0.0616  0.0732
 1616SOL     OW 4846   0.549   1.429   0.346  0.3063  0.1222  0.6164
 1616SOL    HW1 4847   0.552   1.478   0.428 -2.8987  1.7302 -0.0597
 1616SOL    HW2 4848   0.520   1.493   0.281  1.3300 -1.4413 -1.5194
 1617SOL     OW 4849   3.965   2.794   2.655 -0.3206 -0.5184 -0.2038
 1617SOL    HW1 4850   3.927   2.867   2.703 -1.2373 -0.3362 -1.1847
 1617SOL    HW2 4851   4.058   2.817   2.647 -0.6752  0.7528 -0.8686
 1618SOL     OW 4852   2.264   1.403   2.873 -0.1290  0.0220  0.4436
 1618SOL    HW1 4853   2.239   1.408   2.781  0.6513  0.1384  0.2360
 1618SOL    HW2 4854   2.305   1.488   2.891 -2.0022  0.7867  1.4245
 1619SOL     OW 4855   2.662   3.421   3.627  0.0794 -0.5246  0.4414
 1619SOL    HW1 4856   2.663   3.416   3.532  1.3386 -1.2605  0.4682
 1619SOL    HW2 4857   2.626   3.508   3.647 -1.6605 -0.9585 -0.6482
 1620SOL     OW 4858   3.538   1.809   1.871 -0.0518  0.0806  0.1394
 1620SOL    HW1 4859   3.561   1.798   1.963  2.3774 -0.3649 -0.4510
 1620SOL    HW2 4860   3.558   1.901   1.852  0.0983 -0.0056 -0.1164
 1621SOL     OW 4861   2.593   1.024   1.585  0.1925  0.0938 -0.5031
 1621SOL    HW1 4862   2.588   1.068   1.501  1.1097  0.8919 -0.1722
 1621SOL    HW2 4863   2.609   0.932   1.564  0.1577  0.2458 -1.1996
 1622SOL     OW 4864   0.964   0.306   2.015  0.2351  0.4783 -0.1461
 1622SOL    HW1 4865   0.892   0.259   2.058  1.2385 -1.7425 -0.7426
 1622SOL    HW2 4866   1.016   0.342   2.087  0.4658 -0.9825  0.4575
 1623SOL     OW 4867   1.067   3.801   1.844 -0.5644  0.1773 -0.2625
 1623SOL    HW1 4868   1.027   3.888   1.852 -1.6915 -0.4363  1.3874
 1623SOL    HW2 4869   1.024   3.749   1.912  0.1682 -1.6529 -1.1372
 1624SOL     OW 4870   2.769   0.179   2.691  0.1088  0.3947 -0.0312
 1624SOL    HW1 4871   2.733   0.140   2.612  0.1453 -0.0025  0.1438
 1624SOL    HW2 4872   2.716   0.142   2.762  0.7407 -0.0495  0.2134
 1625SOL     OW 4873   2.056   3.481   3.531 -0.0820  0.0007  0.2756
 1625SOL    HW1 4874   2.043   3.477   3.437 -1.0966  1.2818  0.3252
 1625SOL    HW2 4875   1.989   3.424   3.568  0.2674 -0.4414  0.2420
 1626SOL     OW 4876   3.949   0.844   1.811 -0.6494  0.5362 -0.0696
 1626SOL    HW1 4877   3.916   0.795   1.736 -0.9661  2.1451 -1.0397
 1626SOL    HW2 4878   4.034   0.878   1.781  0.3417 -0.7424  1.1744
 1627SOL     OW 4879   1.374   1.544   3.916 -0.2184  0.1720 -0.1750
 1627SOL    HW1 4880   1.291   1.590   3.932  0.0900  0.6146  0.1819
 1627SOL    HW2 4881   1.406   1.580   3.834 -0.0620  0.4731  0.0173
 1628SOL     OW 4882   1.301   1.229   1.732  0.1614  0.3621  0.4947
 1628SOL    HW1 4883   1.250   1.166   1.681  0.0480  1.1598 -0.3997
 1628SOL    HW2 4884   1.248   1.244   1.810 -2.1577  2.7816 -1.3530
 1629SOL     OW 4885   2.543   2.366   1.328 -0.0860  0.2037 -0.1727
 1629SOL    HW1 4886   2.478   2.422   1.284  0.2107 -0.9194 -2.1978
 1629SOL    HW2 4887   2.612   2.426   1.356 -1.5045  1.2954  1.1572
 1630SOL     OW 4888   3.811   1.107   3.610 -0.1740  0.3846  0.6439
 1630SOL    HW1 4889   3.894   1.154   3.615  0.0788  0.1247 -0.7434
 1630SOL    HW2 4890   3.834   1.019   3.580 -1.1197  1.0533 -2.3746
 1631SOL     OW 4891   2.422   1.821   0.927  0.6932  0.4578 -0.0474
 1631SOL    HW1 4892   2.509   1.797   0.960  0.1235 -1.0486  0.4292
 1631SOL    HW2 4893   2.413   1.774   0.845 -0.1817 -0.4691  0.5611
 1632SOL     OW 4894   1.676   0.708   1.538 -0.3044  0.0350 -0.0285
 1632SOL    HW1 4895   1.767   0.705   1.508  0.5616  1.4606  2.1903
 1632SOL    HW2 4896   1.630   0.645   1.483  2.2312 -1.5119 -0.5274
 1633SOL     OW 4897   1.572   1.387   3.652 -0.0175 -0.2068 -0.0689
 1633SOL    HW1 4898   1.630   1.425   3.718  1.3730 -0.9751 -0.8150
 1633SOL    HW2 4899   1.512   1.459   3.629  0.2820  0.4386  1.0946
 1634SOL     OW 4900   0.878   1.184   1.175 -0.0901  0.1478 -0.6697
 1634SOL    HW1 4901   0.902   1.106   1.224  1.4292  1.2794  0.4889
 1634SOL    HW2 4902   0.784   1.177   1.163 -0.2282 -1.0843  0.8301
 1635SOL     OW 4903   2.554   3.946   0.088  0.1491 -0.3301 -0.2428
 1635SOL    HW1 4904   2.590   4.029   0.120 -1.7306  0.2528  0.4952
 1635SOL    HW2 4905   2.570   3.884   0.159 -0.8263  0.0905  0.3677
 1636SOL     OW 4906   1.656   0.663   3.734 -0.4963  0.3527 -0.7050
 1636SOL    HW1 4907   1.608   0.711   3.802 -0.3357  0.4501 -0.6588
 1636SOL    HW2 4908   1.644   0.715   3.655 -1.0559  0.0055 -0.8537
 1637SOL     OW 4909   0.268   1.236   3.790  0.4529  0.0476 -0.0790
 1637SOL    HW1 4910   0.354   1.228   3.747  0.3690 -0.4133 -0.1713
 1637SOL    HW2 4911   0.288   1.274   3.876  0.6077  1.0789 -0.5587
 1638SOL     OW 4912   0.769   1.921   0.903  0.1970  0.6182 -0.4773
 1638SOL    HW1 4913   0.849   1.889   0.946 -0.7492  0.2301  1.0443
 1638SOL    HW2 4914   0.746   2.001   0.950 -2.5035 -1.3501  1.8783
 1639SOL     OW 4915   0.362   0.093   2.114  0.1222  0.0640  0.2131
 1639SOL    HW1 4916   0.411   0.175   2.123  0.7812 -0.1291 -1.3142
 1639SOL    HW2 4917   0.274   0.114   2.144  1.1435  0.3365  3.4447
 1640SOL     OW 4918   3.833   1.980   1.283  0.0037  0.4171  0.2355
 1640SOL    HW1 4919   3.815   1.986   1.377  1.9993 -0.1915  0.7021
 1640SOL    HW2 4920   3.918   1.938   1.278 -0.2667  0.0328 -1.8865
 1641SOL     OW 4921   3.961   3.620   2.737  0.0369  0.0996 -0.5684
 1641SOL    HW1 4922   4.028   3.634   2.804  0.4701  0.0894 -0.9957
 1641SOL    HW2 4923   3.894   3.685   2.757  1.0852  1.4490 -1.3034
 1642SOL     OW 4924   0.487   1.763   3.307  0.0973 -0.1542 -0.7301
 1642SOL    HW1 4925   0.395   1.738   3.310  0.5112 -1.7868 -0.6676
 1642SOL    HW2 4926   0.521   1.719   3.229  0.2925  2.4931 -2.2399
 1643SOL     OW 4927   1.257   0.508   2.044 -0.0812  0.2564  0.1360
 1643SOL    HW1 4928   1.197   0.437   2.070  0.7520 -0.1885  0.9358
 1643SOL    HW2 4929   1.320   0.513   2.116  0.0137  1.6723 -0.0228
 1644SOL     OW 4930   3.157   3.310   1.471 -0.0314  0.9053 -0.1007
 1644SOL    HW1 4931   3.106   3.337   1.395  0.5805  2.2642 -0.0584
 1644SOL    HW2 4932   3.247   3.312   1.441  0.0243 -2.7651 -0.5702
 1645SOL     OW 4933   0.686   1.278   1.503 -0.2388 -0.5141 -0.5689
 1645SOL    HW1 4934   0.616   1.336   1.473  0.6008  0.5768 -0.4502
 1645SOL    HW2 4935   0.640   1.209   1.550 -1.0966  1.9866  2.5748
 1646SOL     OW 4936   3.784   0.689   0.370  0.3229  0.2345  0.2515
 1646SOL    HW1 4937   3.851   0.758   0.367  0.2721  0.2573 -0.9407
 1646SOL    HW2 4938   3.717   0.719   0.309  0.1848 -0.7493 -0.0947
 1647SOL     OW 4939   3.143   2.282   0.789  0.5122  0.3553 -0.6167
 1647SOL    HW1 4940   3.148   2.210   0.852  1.3504  0.2268 -0.8149
 1647SOL    HW2 4941   3.100   2.353   0.836  0.7406  0.1161 -0.0375
 1648SOL     OW 4942   0.088   3.195   1.608 -0.0983  0.2184  0.6667
 1648SOL    HW1 4943   0.052   3.110   1.632  1.2867 -0.4112  0.5846
 1648SOL    HW2 4944   0.117   3.234   1.690  2.5732 -0.9781  0.4033
 1649SOL     OW 4945   0.433   1.387   3.571 -0.0828  0.6250 -0.0252
 1649SOL    HW1 4946   0.406   1.475   3.595  1.1695  0.6509  1.5431
 1649SOL    HW2 4947   0.502   1.399   3.506 -1.3914  0.6819 -1.4500
 1650SOL     OW 4948   0.288   2.769   0.366 -0.4119 -0.3712 -0.2410
 1650SOL    HW1 4949   0.265   2.678   0.346 -0.9175 -0.2391 -0.2958
 1650SOL    HW2 4950   0.239   2.789   0.445 -0.0604 -0.2382 -0.0561
 1651SOL     OW 4951   1.605   1.857   1.356  0.4822  0.1173 -0.3035
 1651SOL    HW1 4952   1.526   1.900   1.387  0.9290 -0.6776  2.0945
 1651SOL    HW2 4953   1.588   1.841   1.263 -2.3594 -0.4148  0.1997
 1652SOL     OW 4954   0.552   0.099   0.860 -0.1313  0.3274 -0.1598
 1652SOL    HW1 4955   0.492   0.028   0.838  2.0143 -1.2835 -1.0974
 1652SOL    HW2 4956   0.636   0.072   0.825  1.9456  1.0143  3.7444
 1653SOL     OW 4957   1.150   2.561   3.506 -0.2528 -0.0583  0.5854
 1653SOL    HW1 4958   1.127   2.572   3.598  2.3692 -0.7621  1.3988
 1653SOL    HW2 4959   1.227   2.615   3.493 -0.9078  0.4944 -1.4081
 1654SOL     OW 4960   1.517   2.626   2.302 -0.4826  0.2631 -0.1391
 1654SOL    HW1 4961   1.477   2.648   2.218  0.8457  1.1815 -0.5665
 1654SOL    HW2 4962   1.601   2.585   2.278  0.6114  1.9174  0.7186
 1655SOL     OW 4963   1.532   2.921   1.978 -0.1959  0.1622  0.2909
 1655SOL    HW1 4964   1.563   2.927   1.888  0.7276  0.4691  0.6231
 1655SOL    HW2 4965   1.442   2.952   1.974  0.1626  1.1744 -0.3548
 1656SOL     OW 4966   3.028   3.760   2.175 -0.0047 -0.7716  0.0026
 1656SOL    HW1 4967   3.107   3.706   2.167  2.4164  2.5002 -0.3312
 1656SOL    HW2 4968   3.032   3.820   2.100 -1.8452  0.6979  0.9717
 1657SOL     OW 4969   0.267   2.644   3.455  0.3056  0.1467  0.0217
 1657SOL    HW1 4970   0.318   2.565   3.469  1.4052  0.7501 -0.4380
 1657SOL    HW2 4971   0.275   2.662   3.361  0.8862  1.3270  0.2792
 1658SOL     OW 4972   3.734   1.770   1.600  0.0453 -0.0278  0.3895
 1658SOL    HW1 4973   3.704   1.686   1.635 -0.0363  0.2922  1.1013
 1658SOL    HW2 4974   3.659   1.804   1.552 -1.6302  1.7775  3.9273
 1659SOL     OW 4975   2.121   1.839   2.668 -0.1678 -0.4729 -0.1054
 1659SOL    HW1 4976   2.031   1.815   2.692 -0.0729 -0.3923  0.3449
 1659SOL    HW2 4977   2.139   1.789   2.589 -0.6294 -0.4473 -0.2305
 1660SOL     OW 4978   3.675   2.443   2.776  0.4981 -0.0070 -0.1673
 1660SOL    HW1 4979   3.762   2.435   2.816  1.1441 -0.2438 -1.5429
 1660SOL    HW2 4980   3.671   2.535   2.748  0.4841 -0.1041 -0.4832
 1661SOL     OW 4981   0.891   2.313   1.614  0.3803 -0.0442  0.6343
 1661SOL    HW1 4982   0.938   2.230   1.626  0.0297 -0.1787  1.0692
 1661SOL    HW2 4983   0.811   2.304   1.666 -1.0296 -0.5269 -1.4945
 1662SOL     OW 4984   2.069   3.567   3.845  1.2157 -0.2842 -0.1410
 1662SOL    HW1 4985   1.975   3.584   3.849  1.3699  0.4425  1.0074
 1662SOL    HW2 4986   2.092   3.579   3.753 -0.2687 -3.2300 -1.0451
 1663SOL     OW 4987   1.746   0.802   0.566  0.7179 -0.5257  0.0418
 1663SOL    HW1 4988   1.771   0.832   0.479  2.0405 -0.2049  0.4995
 1663SOL    HW2 4989   1.662   0.844   0.584  0.7647 -0.0620 -0.8071
 1664SOL     OW 4990   1.809   3.216   2.950 -0.0250 -0.0595 -0.1713
 1664SOL    HW1 4991   1.725   3.221   2.904 -0.1767 -0.7913  0.0075
 1664SOL    HW2 4992   1.866   3.168   2.890 -0.1150 -0.6919  0.2416
 1665SOL     OW 4993   2.527   1.182   3.298 -0.1138 -0.1835 -0.0579
 1665SOL    HW1 4994   2.468   1.117   3.260 -0.5484 -0.5736  1.2463
 1665SOL    HW2 4995   2.549   1.147   3.384  0.6194  0.8227  0.1832
 1666SOL     OW 4996   1.616   3.673   1.405  0.4398 -0.6869 -0.3997
 1666SOL    HW1 4997   1.702   3.677   1.364  0.5162  2.1976 -0.1702
 1666SOL    HW2 4998   1.628   3.714   1.491 -1.2882  0.7244 -0.7534
 1667SOL     OW 4999   1.277   1.026   2.000 -0.3452 -0.3961 -0.3727
 1667SOL    HW1 5000   1.221   1.091   1.957  0.2413  0.9488  0.8170
 1667SOL    HW2 5001   1.217   0.972   2.050 -0.7433 -0.0701 -0.4853
 1668SOL     OW 5002   0.298   2.863   1.075 -0.1795  0.2631 -0.7043
 1668SOL    HW1 5003   0.313   2.782   1.123  0.2283  0.5331 -0.3751
 1668SOL    HW2 5004   0.309   2.839   0.983 -1.9088 -0.4731 -0.7645
 1669SOL     OW 5005   0.084   1.442   0.338  0.0848  0.3660 -0.7777
 1669SOL    HW1 5006   0.118   1.434   0.249 -0.3761  0.1021 -0.9297
 1669SOL    HW2 5007   0.127   1.520   0.373 -0.7889  1.2900 -1.7056
 1670SOL     OW 5008   3.058   0.532   1.534 -0.2140 -0.0407 -0.1020
 1670SOL    HW1 5009   3.085   0.442   1.552 -0.5335 -0.6652 -2.3822
 1670SOL    HW2 5010   3.139   0.577   1.510  0.0357  0.4785  1.5967
 1671SOL     OW 5011   1.304   0.353   1.346  0.3044  0.3073 -0.5494
 1671SOL    HW1 5012   1.232   0.293   1.364  0.3060 -0.1978 -2.0812
 1671SOL    HW2 5013   1.312   0.353   1.250 -0.2022  3.3001 -0.7039
 1672SOL     OW 5014   3.520   0.150   1.741 -0.3401  0.5145  0.4081
 1672SOL    HW1 5015   3.482   0.145   1.653  0.4897  1.0341  0.0082
 1672SOL    HW2 5016   3.587   0.082   1.742  0.2509  1.0863  0.3312
 1673SOL     OW 5017   1.182   1.045   1.538 -0.8461  0.1319 -0.5770
 1673SOL    HW1 5018   1.109   1.106   1.528  0.8115  2.2834 -0.1462
 1673SOL    HW2 5019   1.216   1.034   1.449 -0.1171  1.2013 -0.4422
 1674SOL     OW 5020   0.626   2.056   2.731 -0.2755 -0.0443 -0.5052
 1674SOL    HW1 5021   0.629   1.964   2.706  1.5185  0.1437 -1.1139
 1674SOL    HW2 5022   0.663   2.058   2.820 -0.5905  0.0674 -0.3731
 1675SOL     OW 5023   2.723   0.480   2.772 -0.2493  0.1114  0.2286
 1675SOL    HW1 5024   2.745   0.429   2.850 -1.2086  0.2164  0.5780
 1675SOL    HW2 5025   2.806   0.518   2.744  0.1491 -0.1444  1.0375
 1676SOL     OW 5026   2.619   0.064   2.487 -0.1388 -0.0584 -0.2262
 1676SOL    HW1 5027   2.558   0.056   2.560  0.1560 -0.6109 -0.0385
 1676SOL    HW2 5028   2.585   0.136   2.435 -0.3359  0.3584  0.4729
 1677SOL     OW 5029   3.611   0.924   3.083  0.0359 -0.3193 -0.0616
 1677SOL    HW1 5030   3.526   0.908   3.043  1.1511 -1.1232 -2.2225
 1677SOL    HW2 5031   3.650   0.838   3.095  1.7850  0.1150 -2.0296
 1678SOL     OW 5032   1.624   2.251   1.527  0.1835  0.6662 -0.0553
 1678SOL    HW1 5033   1.619   2.173   1.582 -0.5104  0.0915 -0.9075
 1678SOL    HW2 5034   1.589   2.223   1.443 -1.5790  2.3029  0.0654
 1679SOL     OW 5035   3.134   3.564   2.529  0.1218  0.3086  0.0002
 1679SOL    HW1 5036   3.072   3.514   2.582  0.6108 -0.3049  0.0053
 1679SOL    HW2 5037   3.199   3.499   2.501  1.5700  1.1942  1.1811
 1680SOL     OW 5038   3.446   3.763   3.546  0.0424  0.7831  0.0616
 1680SOL    HW1 5039   3.469   3.724   3.462 -3.1767 -0.2433 -0.4565
 1680SOL    HW2 5040   3.517   3.738   3.605  1.1924 -0.4735 -1.7780
 1681SOL     OW 5041   0.492   0.326   2.778  0.2605 -0.0535 -0.0112
 1681SOL    HW1 5042   0.452   0.291   2.699 -0.2620 -1.8882  1.0054
 1681SOL    HW2 5043   0.432   0.303   2.849  1.5931 -0.1102  1.1637
 1682SOL     OW 5044   1.371   0.066   0.196 -0.1242  0.5846  0.1128
 1682SOL    HW1 5045   1.391   0.158   0.212 -1.6029  0.8671  0.4572
 1682SOL    HW2 5046   1.438   0.018   0.244  1.2047  1.4642 -0.7995
 1683SOL     OW 5047   1.150   0.716   0.603  0.2794 -0.2304  0.2834
 1683SOL    HW1 5048   1.198   0.661   0.540  0.9716 -0.1868  0.7610
 1683SOL    HW2 5049   1.058   0.698   0.585  0.4806 -2.0902  0.8999
 1684SOL     OW 5050   3.603   0.038   3.717  0.1230  0.0991 -0.5287
 1684SOL    HW1 5051   3.631   0.126   3.693 -2.4338  0.8931 -0.8951
 1684SOL    HW2 5052   3.646  -0.019   3.652  3.0805  0.7897  0.6754
 1685SOL     OW 5053   3.968   1.263   0.511 -0.2103 -0.1493 -0.7673
 1685SOL    HW1 5054   3.983   1.341   0.458  0.5879  0.0001 -0.3264
 1685SOL    HW2 5055   4.041   1.204   0.488  0.1339 -0.0871  0.1544
 1686SOL     OW 5056   1.726   0.561   2.982  0.4356 -0.1520  0.0747
 1686SOL    HW1 5057   1.722   0.524   2.894 -0.6211  1.1315 -0.4567
 1686SOL    HW2 5058   1.747   0.486   3.038  1.8464 -0.8696 -1.3236
 1687SOL     OW 5059   0.487   3.817   2.302  0.1770 -0.4514 -0.6087
 1687SOL    HW1 5060   0.561   3.854   2.253  0.6748 -0.0702  0.3931
 1687SOL    HW2 5061   0.412   3.871   2.277 -0.1902 -1.9209 -2.9855
 1688SOL     OW 5062   3.250   2.860   0.850 -0.2697 -0.0425  0.7869
 1688SOL    HW1 5063   3.273   2.844   0.941  0.1530  2.2695  1.1711
 1688SOL    HW2 5064   3.329   2.839   0.801  0.1556  0.5159  1.2128
 1689SOL     OW 5065   0.071   3.426   1.459  0.2359 -0.0126 -0.4916
 1689SOL    HW1 5066   0.101   3.348   1.505  0.4245 -0.7370 -1.7962
 1689SOL    HW2 5067   0.129   3.496   1.489 -0.9772  0.0465  1.9668
 1690SOL     OW 5068   2.787   0.525   0.417  0.5672 -0.1952 -1.1062
 1690SOL    HW1 5069   2.700   0.486   0.402 -0.4151  1.1124  0.7690
 1690SOL    HW2 5070   2.842   0.451   0.442 -0.8335 -0.7022  0.7064
 1691SOL     OW 5071   3.997   1.179   1.670  0.5121  0.0781 -0.0689
 1691SOL    HW1 5072   3.999   1.272   1.689  0.2444  0.3270 -1.2083
 1691SOL    HW2 5073   3.907   1.162   1.642  0.8975 -0.2443 -1.1619
 1692SOL     OW 5074   2.875   1.049   0.884  0.5932 -0.4882 -0.2159
 1692SOL    HW1 5075   2.913   1.136   0.874  0.5422 -0.5569 -1.1133
 1692SOL    HW2 5076   2.815   1.040   0.809 -0.1618 -0.9083  0.4187
 1693SOL     OW 5077   0.267   2.739   0.823  0.2920 -0.8415  0.2698
 1693SOL    HW1 5078   0.237   2.650   0.804 -0.6223 -0.5249  0.1771
 1693SOL    HW2 5079   0.228   2.793   0.755  3.7653 -0.7966 -1.9132
 1694SOL     OW 5080   2.348   1.703   3.449 -0.0160  0.4598  0.3574
 1694SOL    HW1 5081   2.362   1.610   3.433  1.1501  0.6711 -0.0068
 1694SOL    HW2 5082   2.255   1.717   3.433 -0.0360 -0.4824 -0.4469
 1695SOL     OW 5083   3.686   2.676   0.139 -0.1344  0.8576  0.0305
 1695SOL    HW1 5084   3.600   2.660   0.179 -0.5891  2.4711 -0.2328
 1695SOL    HW2 5085   3.746   2.618   0.186 -1.0820  0.9180  1.3543
 1696SOL     OW 5086   2.859   1.926   3.766  0.1147  0.3770  0.0382
 1696SOL    HW1 5087   2.848   2.001   3.824  1.1508 -0.9356  2.0594
 1696SOL    HW2 5088   2.935   1.948   3.711  1.1187  0.3925  1.3877
 1697SOL     OW 5089   0.830   3.655   2.305  0.0935  0.3284 -0.1492
 1697SOL    HW1 5090   0.880   3.576   2.328  1.0968  0.3488 -2.0982
 1697SOL    HW2 5091   0.747   3.645   2.352  0.9057 -0.9778  1.0958
 1698SOL     OW 5092   0.557   3.086   1.124 -0.2318  0.1443 -0.2725
 1698SOL    HW1 5093   0.500   3.036   1.066  0.1833  0.5568 -1.0665
 1698SOL    HW2 5094   0.512   3.170   1.136 -1.5211 -0.8164  2.0504
 1699SOL     OW 5095   2.712   2.558   3.942  0.0436  0.3536 -0.6619
 1699SOL    HW1 5096   2.645   2.576   3.876 -0.2704  0.6858 -0.2538
 1699SOL    HW2 5097   2.704   2.464   3.960  0.6320  0.0994 -1.6364
 1700SOL     OW 5098   3.693   0.387   1.232  0.1905  0.1405  0.2868
 1700SOL    HW1 5099   3.649   0.305   1.210 -1.4321  0.6422  1.4832
 1700SOL    HW2 5100   3.703   0.384   1.327  1.3297  0.7596  0.1999
 1701SOL     OW 5101   2.552   3.869   3.069  0.2745  0.3175 -0.3859
 1701SOL    HW1 5102   2.599   3.875   3.153 -2.0391  0.1134  0.9916
 1701SOL    HW2 5103   2.541   3.775   3.054  2.5487  0.2368 -2.1082
 1702SOL     OW 5104   3.604   2.886   2.833 -0.5518  0.3923 -0.2183
 1702SOL    HW1 5105   3.520   2.867   2.873  0.0153  0.6759  1.1672
 1702SOL    HW2 5106   3.590   2.965   2.781 -0.9379  0.9488  0.7177
 1703SOL     OW 5107   3.070   0.419   0.817  0.1180  0.3344  0.4460
 1703SOL    HW1 5108   2.984   0.381   0.796  0.7461 -0.1611 -1.3842
 1703SOL    HW2 5109   3.074   0.415   0.913 -0.5160 -2.8053  0.4775
 1704SOL     OW 5110   0.151   1.585   2.677 -0.0848 -0.5212 -0.4342
 1704SOL    HW1 5111   0.101   1.525   2.732  0.4981 -0.4438  0.1918
 1704SOL    HW2 5112   0.183   1.531   2.605 -3.1928 -0.0951 -2.3270
 1705SOL     OW 5113   1.306   2.419   2.136 -0.1719  0.6578 -0.1830
 1705SOL    HW1 5114   1.333   2.385   2.221  0.0948 -1.2944 -0.9790
 1705SOL    HW2 5115   1.377   2.479   2.111  1.6097 -1.4607 -0.5346
 1706SOL     OW 5116   0.473   1.037   2.877 -0.6771 -0.5459 -0.2846
 1706SOL    HW1 5117   0.566   1.045   2.901 -0.7749 -1.2265  0.3757
 1706SOL    HW2 5118   0.428   1.026   2.961 -1.3434 -0.3346 -0.6086
 1707SOL     OW 5119   1.540   3.198   2.086 -0.2682 -0.0014  0.1570
 1707SOL    HW1 5120   1.541   3.232   1.996  1.9062  0.2160  0.2142
 1707SOL    HW2 5121   1.491   3.116   2.080  0.6600 -0.4806 -1.4353
 1708SOL     OW 5122   3.315   0.214   3.868  0.1688  0.0568  0.3037
 1708SOL    HW1 5123   3.228   0.253   3.867 -0.4033 -1.1861  0.1943
 1708SOL    HW2 5124   3.302   0.126   3.904  1.3488 -0.2227  0.0961
 1709SOL     OW 5125   1.878   1.987   0.678 -0.0228  0.4498  0.2333
 1709SOL    HW1 5126   1.857   1.895   0.669 -0.6459  0.8085 -3.2649
 1709SOL    HW2 5127   1.968   1.988   0.712 -0.3735 -1.3730  1.2960
 1710SOL     OW 5128   2.817   0.521   3.727  0.3521  0.4261 -0.5433
 1710SOL    HW1 5129   2.787   0.430   3.717 -0.4166  0.6054  0.0488
 1710SOL    HW2 5130   2.737   0.572   3.736  0.8098  0.9138  1.1025
 1711SOL     OW 5131   1.260   1.703   1.230 -0.1329 -0.1038  0.5049
 1711SOL    HW1 5132   1.232   1.731   1.318 -0.6990  2.2967 -0.3513
 1711SOL    HW2 5133   1.332   1.761   1.208  0.8627 -1.5353 -0.1524
 1712SOL     OW 5134   1.871   1.793   0.286  0.1438 -0.2592 -0.3856
 1712SOL    HW1 5135   1.910   1.734   0.221 -0.3633 -0.3619 -0.6008
 1712SOL    HW2 5136   1.924   1.873   0.281  1.7160 -1.1463  0.8672
 1713SOL     OW 5137   0.151   2.028   3.042  0.0503  0.0989  0.6156
 1713SOL    HW1 5138   0.110   2.114   3.055 -1.6034 -0.6036  0.2926
 1713SOL    HW2 5139   0.241   2.040   3.071 -0.3642  1.7375  1.3498
 1714SOL     OW 5140   2.285   0.073   0.208 -0.2000 -0.1587 -0.4682
 1714SOL    HW1 5141   2.260   0.106   0.295 -1.9968  0.7359 -1.2751
 1714SOL    HW2 5142   2.289  -0.022   0.219  2.0062  0.0317  1.1417
 1715SOL     OW 5143   0.655   2.697   0.687 -0.1762  0.0344  0.0930
 1715SOL    HW1 5144   0.742   2.672   0.656  0.9111  2.7884  0.6196
 1715SOL    HW2 5145   0.614   2.741   0.613  0.1488  1.4484  0.7022
 1716SOL     OW 5146   3.962   2.246   2.289 -0.4336  0.0428  0.4718
 1716SOL    HW1 5147   3.940   2.318   2.347  0.8398  0.8688 -0.0312
 1716SOL    HW2 5148   4.051   2.265   2.260 -1.4936  0.4187 -2.8781
 1717SOL     OW 5149   0.989   2.739   0.255  0.4610  0.0980  0.5106
 1717SOL    HW1 5150   0.895   2.736   0.273  0.4356  1.7896  0.8121
 1717SOL    HW2 5151   0.995   2.759   0.162  0.5424 -0.4789  0.3865
 1718SOL     OW 5152   0.950   3.760   2.651 -0.0454  0.1345  0.3164
 1718SOL    HW1 5153   0.923   3.751   2.560 -0.2751  0.3538  0.3589
 1718SOL    HW2 5154   1.004   3.684   2.668  0.5175  0.4108 -0.1895
 1719SOL     OW 5155   3.303   3.782   0.863  0.1332  0.1840 -0.2055
 1719SOL    HW1 5156   3.348   3.857   0.825 -0.6050  0.3790 -0.6992
 1719SOL    HW2 5157   3.368   3.711   0.859  1.1955  1.0229  1.1941
 1720SOL     OW 5158   0.069   2.964   0.223 -0.1669  1.0087 -0.2285
 1720SOL    HW1 5159   0.153   2.918   0.212  1.0172  2.9157  0.3040
 1720SOL    HW2 5160   0.070   2.992   0.314 -0.9937  1.8086 -0.4624
 1721SOL     OW 5161   0.924   1.503   0.862 -0.4153  0.2150 -0.0142
 1721SOL    HW1 5162   1.010   1.470   0.836  0.4574  0.0637  2.7604
 1721SOL    HW2 5163   0.933   1.523   0.955 -3.8105 -1.2796  0.7915
 1722SOL     OW 5164   2.018   0.996   0.209  0.3244 -0.4117  0.0600
 1722SOL    HW1 5165   2.004   1.018   0.301  2.0725 -1.1435  0.5386
 1722SOL    HW2 5166   1.989   1.074   0.161  2.1404  1.1991  1.4132
 1723SOL     OW 5167   1.857   3.906   3.671 -0.0757 -0.5088 -0.4468
 1723SOL    HW1 5168   1.873   4.000   3.678 -0.5418 -0.5401  1.7832
 1723SOL    HW2 5169   1.761   3.898   3.670 -0.0516 -0.9167 -2.1222
 1724SOL     OW 5170   1.111   1.254   3.726 -0.2621 -0.7897  0.2209
 1724SOL    HW1 5171   1.205   1.239   3.729 -0.2329 -0.7481 -0.4410
 1724SOL    HW2 5172   1.073   1.184   3.780  0.0379 -1.7488 -0.7878
 1725SOL     OW 5173   3.493   3.060   1.288  1.0339  0.8265 -0.6865
 1725SOL    HW1 5174   3.568   3.115   1.267  0.5644  1.0258 -1.8719
 1725SOL    HW2 5175   3.531   2.975   1.312  1.6216  0.8291 -1.6003
 1726SOL     OW 5176   0.567   3.578   1.331 -0.2160 -0.1527 -0.3211
 1726SOL    HW1 5177   0.628   3.504   1.326 -1.0837 -0.9159  0.2382
 1726SOL    HW2 5178   0.507   3.556   1.402  0.7825  2.0674  1.3423
 1727SOL     OW 5179   3.280   3.060   3.861 -0.2068 -0.1529  0.3147
 1727SOL    HW1 5180   3.236   3.030   3.782 -0.4891 -0.8297  0.7222
 1727SOL    HW2 5181   3.224   3.029   3.933  2.2041 -3.3835  1.0196
 1728SOL     OW 5182   3.267   1.575   3.537 -0.1723 -0.7195 -0.5582
 1728SOL    HW1 5183   3.360   1.583   3.519 -0.2159 -2.0864 -1.5090
 1728SOL    HW2 5184   3.229   1.656   3.502  0.3717 -1.1991 -2.3735
 1729SOL     OW 5185   1.106   0.436   3.053  0.0690 -0.7881  0.2010
 1729SOL    HW1 5186   1.187   0.435   3.104 -0.6574 -3.0742  1.4410
 1729SOL    HW2 5187   1.084   0.344   3.041 -2.3152 -0.2452 -0.1647
 1730SOL     OW 5188   0.652   2.468   0.439 -0.0835  0.2871  0.0967
 1730SOL    HW1 5189   0.607   2.453   0.356  1.2254  1.2036 -0.8099
 1730SOL    HW2 5190   0.583   2.463   0.505 -0.9529 -1.6882 -0.8953
 1731SOL     OW 5191   3.279   0.844   0.095 -0.3372 -0.0536  0.2101
 1731SOL    HW1 5192   3.332   0.924   0.100  0.4845 -0.6354  1.1413
 1731SOL    HW2 5193   3.281   0.820   0.003 -1.0597  1.2912 -0.1928
 1732SOL     OW 5194   0.887   2.200   3.868  0.3978  0.1404  0.0989
 1732SOL    HW1 5195   0.962   2.158   3.911 -0.9742 -2.1414  0.4304
 1732SOL    HW2 5196   0.926   2.268   3.814  2.5352  0.3661  1.7747
 1733SOL     OW 5197   3.980   3.932   0.560  0.9300  0.3450  0.0983
 1733SOL    HW1 5198   3.965   3.928   0.465 -0.0720  0.6606  0.2347
 1733SOL    HW2 5199   3.895   3.910   0.599  1.0103  1.3970  0.9143
 1734SOL     OW 5200   0.256   3.555   0.719 -0.2676  0.1939  0.3100
 1734SOL    HW1 5201   0.338   3.530   0.675  1.6308  2.3708  2.3309
 1734SOL    HW2 5202   0.265   3.519   0.807 -3.2045 -2.5738 -0.3312
 1735SOL     OW 5203   1.277   1.028   0.902  0.5689 -0.5241  0.2373
 1735SOL    HW1 5204   1.229   0.949   0.876  0.6468 -0.7399  0.7299
 1735SOL    HW2 5205   1.214   1.099   0.887  0.2846 -0.7442  0.3601
 1736SOL     OW 5206   3.298   1.606   2.087  0.0784  0.2673  0.2794
 1736SOL    HW1 5207   3.391   1.607   2.111  0.2098  1.1906 -0.2225
 1736SOL    HW2 5208   3.254   1.649   2.160 -0.1274 -1.3378  1.1288
 1737SOL     OW 5209   0.138   0.345   0.945 -0.1927 -0.1848  0.0187
 1737SOL    HW1 5210   0.102   0.263   0.981 -0.7496  0.1579  0.2585
 1737SOL    HW2 5211   0.210   0.368   1.004  0.2762 -0.7494 -0.3228
 1738SOL     OW 5212   1.291   0.437   1.788 -0.1909 -0.4283 -0.5126
 1738SOL    HW1 5213   1.307   0.405   1.877  0.8806  0.4015 -0.3906
 1738SOL    HW2 5214   1.342   0.379   1.732  2.4655  1.4327 -0.2246
 1739SOL     OW 5215   2.977   3.853   1.742  0.1767 -0.1406 -0.5446
 1739SOL    HW1 5216   2.901   3.910   1.754  0.0267 -0.2034 -1.1706
 1739SOL    HW2 5217   2.940   3.770   1.712  0.2841 -1.0038  1.5520
 1740SOL     OW 5218   0.052   3.271  -0.008 -0.4341  0.2673  0.5395
 1740SOL    HW1 5219   0.089   3.274   0.081 -1.6829 -3.8809  1.4290
 1740SOL    HW2 5220   0.099   3.198  -0.050 -1.7394  0.4122 -1.2579
 1741SOL     OW 5221   1.574   1.889   2.353 -0.3929  0.0357 -0.0886
 1741SOL    HW1 5222   1.483   1.862   2.360 -1.6347  2.1714 -4.3425
 1741SOL    HW2 5223   1.617   1.818   2.306 -0.3500 -0.1549  0.2397
 1742SOL     OW 5224   1.260   3.460   0.428 -0.7147 -0.1484  0.9422
 1742SOL    HW1 5225   1.173   3.498   0.435 -0.2983  0.9040  0.5127
 1742SOL    HW2 5226   1.270   3.410   0.510 -0.7093  1.8789  2.2562
 1743SOL     OW 5227   2.393   0.011   2.672  0.2744 -0.4078  0.1843
 1743SOL    HW1 5228   2.333  -0.059   2.649  0.0507 -0.1945  0.1133
 1743SOL    HW2 5229   2.339   0.073   2.722  0.6236 -0.6087  0.8245
 1744SOL     OW 5230   0.881   3.664   3.059 -0.6085 -0.2215  0.2395
 1744SOL    HW1 5231   0.905   3.756   3.048  1.6096 -0.4889  2.0188
 1744SOL    HW2 5232   0.855   3.657   3.151  1.2096 -1.6713  0.7192
 1745SOL     OW 5233   2.229   2.027   1.200 -0.2475 -0.6654 -0.5491
 1745SOL    HW1 5234   2.216   2.056   1.290 -0.0495 -0.7089 -0.5045
 1745SOL    HW2 5235   2.239   1.932   1.207 -0.8942 -0.7482 -0.6948
 1746SOL     OW 5236   3.505   3.958   2.098 -0.6774 -0.0429  0.3796
 1746SOL    HW1 5237   3.562   4.034   2.098 -0.7409  0.0049  0.3694
 1746SOL    HW2 5238   3.460   3.961   2.014  0.4953 -0.9781 -0.3159
 1747SOL     OW 5239   0.863   1.867   3.668 -0.3826 -0.1062  0.7454
 1747SOL    HW1 5240   0.848   1.911   3.584  1.0747  0.5938  0.8309
 1747SOL    HW2 5241   0.783   1.883   3.718 -0.9899  0.0559 -0.2566
 1748SOL     OW 5242   1.283   1.890   1.868 -0.5028  0.3579 -0.5941
 1748SOL    HW1 5243   1.305   1.981   1.847  0.5359 -0.0635 -1.3918
 1748SOL    HW2 5244   1.296   1.842   1.787 -0.2568 -0.6431  0.0172
 1749SOL     OW 5245   0.317   3.165   2.894 -0.4407 -0.4136 -0.1440
 1749SOL    HW1 5246   0.302   3.212   2.812 -0.4174  0.9665  0.6078
 1749SOL    HW2 5247   0.230   3.149   2.929 -0.4207  0.5292  0.3731
 1750SOL     OW 5248   0.749  -0.007   2.520 -0.5023  0.5186  0.6533
 1750SOL    HW1 5249   0.727   0.056   2.451  0.7243  1.0734  0.7368
 1750SOL    HW2 5250   0.833  -0.045   2.492 -0.1433  0.5218  1.6703
 1751SOL     OW 5251   3.847   1.303   0.745 -0.1712  0.2287  0.0827
 1751SOL    HW1 5252   3.900   1.286   0.667 -0.3938  1.4416 -0.3549
 1751SOL    HW2 5253   3.768   1.345   0.711 -1.4102 -1.4893  0.7307
 1752SOL     OW 5254   3.552   1.439   1.651 -0.2462  0.1869 -0.2529
 1752SOL    HW1 5255   3.499   1.467   1.577  0.1727 -0.3460 -0.7663
 1752SOL    HW2 5256   3.600   1.362   1.619 -0.3484 -0.2891  0.6850
 1753SOL     OW 5257   1.735   0.939  -0.025  1.3067  0.1695  0.1159
 1753SOL    HW1 5258   1.743   1.013   0.035 -0.1008  0.2101  0.2966
 1753SOL    HW2 5259   1.676   0.878   0.020  0.9543 -0.2091 -0.8376
 1754SOL     OW 5260   1.494   2.438   0.747 -0.2505  0.5029 -0.3858
 1754SOL    HW1 5261   1.523   2.358   0.702 -0.0561  0.9123 -1.0089
 1754SOL    HW2 5262   1.404   2.419   0.774 -0.4386  0.3123 -1.1215
 1755SOL     OW 5263   3.767   3.073   3.942 -0.4995 -0.1577  0.0179
 1755SOL    HW1 5264   3.671   3.081   3.944 -0.4532  1.9049 -1.8420
 1755SOL    HW2 5265   3.796   3.110   4.025 -1.2961 -0.1115  0.2868
 1756SOL     OW 5266   3.297   0.360   2.701 -0.4348 -0.3343 -0.0952
 1756SOL    HW1 5267   3.249   0.310   2.634 -0.9448 -0.1743  0.1447
 1756SOL    HW2 5268   3.229   0.389   2.762  0.1028 -1.0249  0.8480
 1757SOL     OW 5269   2.498   2.497   2.927  0.0801  0.1959 -0.2381
 1757SOL    HW1 5270   2.557   2.487   2.852  1.7771 -2.3279  1.2712
 1757SOL    HW2 5271   2.548   2.548   2.990  0.1175 -0.7447  0.5118
 1758SOL     OW 5272   1.095   3.028   3.521  0.6337 -0.5487 -0.7241
 1758SOL    HW1 5273   1.095   3.123   3.520  0.3710 -0.5232  0.4941
 1758SOL    HW2 5274   1.183   3.003   3.492  1.4835  0.1150  1.1426
 1759SOL     OW 5275   0.364   0.424   3.949  0.5213  0.2063 -0.2152
 1759SOL    HW1 5276   0.430   0.408   4.017  0.9185 -0.8546 -0.8234
 1759SOL    HW2 5277   0.360   0.519   3.942  0.5672  0.3381  1.1894
 1760SOL     OW 5278   2.380   2.321   2.102  0.4923  0.5747  0.3604
 1760SOL    HW1 5279   2.386   2.344   2.195  0.8108 -0.6247  0.6539
 1760SOL    HW2 5280   2.294   2.281   2.092  0.7578  0.0107  0.3065
 1761SOL     OW 5281   1.595   3.109   3.702  0.8080 -0.4061  0.1772
 1761SOL    HW1 5282   1.651   3.052   3.651 -1.3411 -0.2661 -2.5899
 1761SOL    HW2 5283   1.586   3.188   3.648 -0.8739  0.1256  1.1501
 1762SOL     OW 5284   1.536   1.972   1.631 -0.0205 -0.5953  0.4193
 1762SOL    HW1 5285   1.610   2.005   1.683 -1.1146  0.1960  1.5339
 1762SOL    HW2 5286   1.560   1.882   1.610  1.2961 -0.3286  0.6775
 1763SOL     OW 5287   0.445   3.174   0.130  0.0243  0.4460 -0.0231
 1763SOL    HW1 5288   0.445   3.145   0.221  1.7746 -0.0501 -0.1572
 1763SOL    HW2 5289   0.536   3.199   0.112 -0.6294  2.3008 -1.0925
 1764SOL     OW 5290   0.970   1.210   1.518  0.0167 -0.3549 -0.1823
 1764SOL    HW1 5291   0.881   1.224   1.485 -0.1193 -1.0918 -0.1515
 1764SOL    HW2 5292   0.959   1.202   1.613  0.0588 -0.8420 -0.2153
 1765SOL     OW 5293   0.458   2.561   2.944 -0.2213  0.4046 -0.4011
 1765SOL    HW1 5294   0.548   2.593   2.957 -0.2036  0.9132 -1.6387
 1765SOL    HW2 5295   0.416   2.630   2.892 -0.9344 -0.4397 -0.9629
 1766SOL     OW 5296   1.804   3.286   2.038 -0.3573  0.0507  0.5172
 1766SOL    HW1 5297   1.723   3.235   2.042  0.9112 -2.1013  0.2268
 1766SOL    HW2 5298   1.863   3.243   2.101  1.8067 -0.8622 -1.9360
 1767SOL     OW 5299   2.281   0.886   2.435 -0.6802  0.0337 -0.0833
 1767SOL    HW1 5300   2.302   0.802   2.475 -2.2043  0.4312  1.6804
 1767SOL    HW2 5301   2.331   0.887   2.353  1.0008 -1.6717  0.8533
 1768SOL     OW 5302   1.689   0.458   3.370  0.3249 -0.6601  0.0076
 1768SOL    HW1 5303   1.642   0.420   3.296  3.1161 -0.5395 -1.9896
 1768SOL    HW2 5304   1.750   0.390   3.396  1.3929  0.3608  0.2291
 1769SOL     OW 5305   0.069   0.574   2.355 -0.1093 -0.1871 -0.4409
 1769SOL    HW1 5306   0.064   0.670   2.357 -0.5466 -0.2269  0.7963
 1769SOL    HW2 5307   0.041   0.546   2.442 -1.2815 -1.5100 -1.1975
 1770SOL     OW 5308   2.445   3.328   1.402 -0.1534  0.1823  0.0402
 1770SOL    HW1 5309   2.391   3.358   1.329  0.8077  1.5070 -0.1591
 1770SOL    HW2 5310   2.447   3.403   1.462  3.1013  1.0346 -0.9105
 1771SOL     OW 5311   2.754   2.537   0.417  0.3964 -0.0368  0.2174
 1771SOL    HW1 5312   2.715   2.620   0.445 -0.4388  0.5082 -2.3233
 1771SOL    HW2 5313   2.839   2.562   0.381 -0.2141 -0.1150 -1.3433
 1772SOL     OW 5314   2.204   1.677   2.467  0.5407 -0.0870  0.3298
 1772SOL    HW1 5315   2.219   1.588   2.497  0.7375  0.4107  1.7796
 1772SOL    HW2 5316   2.119   1.673   2.422  1.0713 -1.2100 -0.6337
 1773SOL     OW 5317   3.571   3.023   0.348 -0.5013  0.4110  0.2182
 1773SOL    HW1 5318   3.652   3.024   0.296 -0.4777 -0.1475  0.2388
 1773SOL    HW2 5319   3.506   2.983   0.291  0.1318 -2.6634  1.4631
 1774SOL     OW 5320   0.000   0.665   3.004 -0.8543  0.4683 -0.0688
 1774SOL    HW1 5321   0.060   0.592   2.985 -2.9115 -0.9670 -1.4550
 1774SOL    HW2 5322   0.056   0.731   3.045  1.1583 -1.8059  1.1383
 1775SOL     OW 5323   3.472   3.069   3.149  0.2099  0.0778  0.1155
 1775SOL    HW1 5324   3.446   3.157   3.176  0.3428  0.7513 -1.8331
 1775SOL    HW2 5325   3.515   3.032   3.227 -1.4231  1.0396  1.5418
 1776SOL     OW 5326   0.909   3.698   0.906 -0.3277 -0.0340 -0.0801
 1776SOL    HW1 5327   0.856   3.680   0.983 -1.0305  1.5889 -0.1300
 1776SOL    HW2 5328   0.880   3.633   0.841  0.0598 -1.2134  0.9058
 1777SOL     OW 5329   2.728   0.925   0.331 -0.5428  0.6490  0.0315
 1777SOL    HW1 5330   2.704   1.018   0.333  1.6162  1.2402  1.0262
 1777SOL    HW2 5331   2.821   0.923   0.352 -0.7565 -1.8390  1.1384
 1778SOL     OW 5332   0.317   3.725   1.079 -1.0898  0.0963  0.6707
 1778SOL    HW1 5333   0.367   3.770   1.010 -2.0881  0.6551  0.2893
 1778SOL    HW2 5334   0.365   3.745   1.159  1.1394 -2.0228  0.0232
 1779SOL     OW 5335   3.211   0.915   1.850  0.2049 -0.4472  0.0381
 1779SOL    HW1 5336   3.174   0.844   1.904 -1.1387 -1.0663 -1.5999
 1779SOL    HW2 5337   3.139   0.978   1.841 -0.1169 -1.0507 -2.1590
 1780SOL     OW 5338   1.113   1.494   1.707  0.4015 -0.1241 -0.1518
 1780SOL    HW1 5339   1.120   1.410   1.754 -0.7804  0.6149  1.4490
 1780SOL    HW2 5340   1.027   1.491   1.666 -0.3318  0.8983  1.2286
 1781SOL     OW 5341   3.341   1.957   1.264  0.2292  0.1384 -0.3599
 1781SOL    HW1 5342   3.392   2.011   1.204  0.6664 -0.1300 -0.2354
 1781SOL    HW2 5343   3.252   1.989   1.255  0.3443  0.3125 -0.9206
 1782SOL     OW 5344   1.802   2.673   0.442  0.5794 -0.2980  0.2307
 1782SOL    HW1 5345   1.864   2.744   0.460 -0.1297  0.2341  0.6286
 1782SOL    HW2 5346   1.746   2.670   0.520  0.1135 -0.7862 -0.1135
 1783SOL     OW 5347   1.396   2.372   3.805 -0.4115  0.2578  0.1145
 1783SOL    HW1 5348   1.307   2.380   3.841 -0.0706 -1.6645  1.5739
 1783SOL    HW2 5349   1.383   2.367   3.711 -1.7838  0.7686  0.2526
 1784SOL     OW 5350   0.087   2.588   0.956 -0.2227  0.5341 -0.0843
 1784SOL    HW1 5351   0.014   2.534   0.925 -0.1980  0.4605 -0.0145
 1784SOL    HW2 5352   0.057   2.678   0.944 -0.2533  0.5053 -0.2293
 1785SOL     OW 5353   1.453   0.300   1.580  0.0969  0.3682  0.0026
 1785SOL    HW1 5354   1.381   0.330   1.524  0.8127 -0.0179 -1.1555
 1785SOL    HW2 5355   1.436   0.207   1.591  0.1728  0.3662  0.0930
 1786SOL     OW 5356   0.625   1.822   1.386 -0.4491  0.2767 -0.3259
 1786SOL    HW1 5357   0.669   1.762   1.326 -1.5807 -1.8117  0.8089
 1786SOL    HW2 5358   0.570   1.877   1.330  0.6934  0.3643 -1.4006
 1787SOL     OW 5359   3.616   1.199   0.410 -0.5578  0.0460  0.0361
 1787SOL    HW1 5360   3.633   1.229   0.321  0.7035  1.3874  0.6851
 1787SOL    HW2 5361   3.625   1.278   0.464  0.3538 -1.0396  1.5460
 1788SOL     OW 5362   2.179   3.793   0.527  0.2423 -0.9724 -0.3237
 1788SOL    HW1 5363   2.261   3.840   0.540  0.2442 -0.5518 -1.6823
 1788SOL    HW2 5364   2.205   3.707   0.494  0.1540 -0.1478 -2.7770
 1789SOL     OW 5365   0.528   2.929   2.999 -0.0505  0.0789 -0.3561
 1789SOL    HW1 5366   0.590   2.926   2.926  0.2965  1.9953 -0.1818
 1789SOL    HW2 5367   0.481   3.012   2.988 -0.1371  0.3208  1.4703
 1790SOL     OW 5368   1.566   0.314   0.379  0.3459 -0.2898 -0.1013
 1790SOL    HW1 5369   1.532   0.237   0.424 -0.7967  0.6892  0.7511
 1790SOL    HW2 5370   1.579   0.379   0.448 -0.5059  0.9086 -1.0232
 1791SOL     OW 5371   3.495   3.663   0.229 -0.5442 -0.0906 -0.4768
 1791SOL    HW1 5372   3.534   3.692   0.146  1.5415 -2.8141 -0.5666
 1791SOL    HW2 5373   3.487   3.743   0.280 -0.0444  1.3964 -2.5779
 1792SOL     OW 5374   1.212   3.705   0.220  0.7896  0.1200 -0.2671
 1792SOL    HW1 5375   1.307   3.712   0.218  0.8044 -0.1221 -1.4179
 1792SOL    HW2 5376   1.193   3.629   0.165 -0.0151 -0.6326  1.0087
 1793SOL     OW 5377   3.937   2.984   1.670  0.9002  0.0191 -0.5907
 1793SOL    HW1 5378   3.845   2.973   1.694  1.1986 -0.6771  0.2887
 1793SOL    HW2 5379   3.962   2.900   1.631  1.2324  0.1188 -0.5954
 1794SOL     OW 5380   2.016   2.558   3.744  0.4126  0.7035  0.4703
 1794SOL    HW1 5381   2.101   2.548   3.785  0.3027  0.3251  0.6112
 1794SOL    HW2 5382   1.965   2.609   3.807 -0.7943 -2.5516  2.3841
 1795SOL     OW 5383   0.277   1.478   1.562 -0.2172  0.5388  0.5220
 1795SOL    HW1 5384   0.314   1.391   1.570 -0.9000  0.0737 -1.0430
 1795SOL    HW2 5385   0.267   1.508   1.652  2.5000  0.1034  1.0569
 1796SOL     OW 5386   2.076   1.899   1.643  0.0393 -0.3214 -0.0892
 1796SOL    HW1 5387   2.118   1.927   1.725  0.2908 -0.8736 -0.0282
 1796SOL    HW2 5388   2.015   1.831   1.669 -0.6172  0.1996 -0.2349
 1797SOL     OW 5389   2.849   3.319   1.080 -0.5960 -0.0510  0.8313
 1797SOL    HW1 5390   2.817   3.341   1.167 -0.4491  0.5957  0.7268
 1797SOL    HW2 5391   2.927   3.373   1.068 -0.5416 -0.2240  0.3498
 1798SOL     OW 5392   0.766   0.464   3.714 -0.6263 -0.3071 -0.2157
 1798SOL    HW1 5393   0.757   0.376   3.751 -1.1517 -0.3290 -0.3920
 1798SOL    HW2 5394   0.700   0.516   3.760  0.9740  0.4808  1.3151
 1799SOL     OW 5395   1.941   0.701   1.437  0.0414  0.1416 -0.0543
 1799SOL    HW1 5396   1.884   0.712   1.361  0.6320  3.0399 -0.2142
 1799SOL    HW2 5397   2.030   0.705   1.401  0.3217  0.5087  0.6524
 1800SOL     OW 5398   0.081   0.984   2.155 -0.5394  0.1698 -0.2037
 1800SOL    HW1 5399   0.091   1.015   2.245 -2.4766  0.4558 -0.0344
 1800SOL    HW2 5400   0.138   1.040   2.103  0.4901  0.0919  0.8242
 1801SOL     OW 5401   1.604   0.051   0.626  0.1511  0.2570  0.1659
 1801SOL    HW1 5402   1.682  -0.001   0.646 -0.1505 -0.8831 -1.4587
 1801SOL    HW2 5403   1.579   0.089   0.710  0.8102 -1.6638  1.2997
 1802SOL     OW 5404   2.492   1.893   1.288 -0.1280 -0.4857  0.4503
 1802SOL    HW1 5405   2.482   1.955   1.360 -2.8464 -0.1703 -0.0576
 1802SOL    HW2 5406   2.418   1.832   1.299  0.9607 -2.0775 -0.5607
 1803SOL     OW 5407   0.989   2.653   1.811 -0.3946  0.0298  0.0623
 1803SOL    HW1 5408   1.038   2.572   1.825 -0.8216 -0.2925 -0.2861
 1803SOL    HW2 5409   0.982   2.692   1.898  0.3299 -0.0064  0.1430
 1804SOL     OW 5410   1.343   3.219   3.056  0.3023 -0.0703 -0.0119
 1804SOL    HW1 5411   1.305   3.137   3.087  1.0725 -0.1524  0.7477
 1804SOL    HW2 5412   1.418   3.193   3.002 -1.0819  0.0641 -2.1341
 1805SOL     OW 5413   0.621   2.579   2.004  0.1736 -0.1999 -0.5504
 1805SOL    HW1 5414   0.698   2.524   1.990  0.4830  0.5426 -1.9349
 1805SOL    HW2 5415   0.627   2.647   1.937 -0.9241  0.7309  0.2515
 1806SOL     OW 5416   0.937   0.291   3.946  0.5195  0.0082  0.5015
 1806SOL    HW1 5417   0.852   0.317   3.911  1.7845  1.3878 -1.8328
 1806SOL    HW2 5418   0.949   0.345   4.023 -0.6278 -0.0784  0.7606
 1807SOL     OW 5419   0.050   1.924   2.199  0.2517  0.1581  0.4531
 1807SOL    HW1 5420  -0.007   1.867   2.250 -0.7189 -0.4974 -1.2710
 1807SOL    HW2 5421  -0.004   2.000   2.179  0.4295  0.1599 -0.0398
 1808SOL     OW 5422   2.830   0.346   1.356  0.2340  0.3905  0.0466
 1808SOL    HW1 5423   2.845   0.440   1.345  0.9432  0.1638 -1.0648
 1808SOL    HW2 5424   2.747   0.330   1.312  0.3855  0.4005 -0.2410
 1809SOL     OW 5425   2.085   0.912   3.264 -1.0082  0.3625 -0.7159
 1809SOL    HW1 5426   2.101   0.819   3.247 -2.0218  0.2464 -1.0528
 1809SOL    HW2 5427   2.076   0.917   3.360  0.7682  0.4076 -0.5084
 1810SOL     OW 5428   2.469   1.029   3.540 -0.6623  0.2236  0.5211
 1810SOL    HW1 5429   2.490   0.957   3.600 -1.7206 -0.8802 -0.3683
 1810SOL    HW2 5430   2.391   1.070   3.577 -1.6787 -0.8366 -0.3333
 1811SOL     OW 5431   0.376   2.228   2.737  0.2789 -0.2007  0.2370
 1811SOL    HW1 5432   0.422   2.293   2.685  0.2069  0.7310  1.2917
 1811SOL    HW2 5433   0.387   2.146   2.689 -1.9101  0.9916 -2.5414
 1812SOL     OW 5434   0.847   1.506   1.609 -0.3298 -0.3457  0.2373
 1812SOL    HW1 5435   0.784   1.512   1.681 -0.7549 -0.1072 -0.1554
 1812SOL    HW2 5436   0.811   1.439   1.551  0.3654 -1.0515  0.5845
 1813SOL     OW 5437   0.557   1.396   3.941  0.4339 -0.1270 -0.1850
 1813SOL    HW1 5438   0.628   1.342   3.973 -0.6708 -0.8244  1.1883
 1813SOL    HW2 5439   0.594   1.442   3.865  2.4573 -0.1176  0.7426
 1814SOL     OW 5440   3.882   3.338   0.337 -0.1854  1.1044  0.4359
 1814SOL    HW1 5441   3.813   3.288   0.381 -0.4245  1.8352  0.9129
 1814SOL    HW2 5442   3.955   3.339   0.399 -0.3182  1.6576  0.5904
 1815SOL     OW 5443   1.174   0.245   0.893 -0.4849  0.1910 -0.3359
 1815SOL    HW1 5444   1.196   0.199   0.974  0.4524 -2.0915 -1.7667
 1815SOL    HW2 5445   1.082   0.268   0.903 -0.2619  0.4197  1.5521
 1816SOL     OW 5446   0.312   0.053   1.744  0.2370 -0.2412 -0.4237
 1816SOL    HW1 5447   0.345   0.089   1.662  1.7756  0.3838  0.4374
 1816SOL    HW2 5448   0.305   0.128   1.802 -1.5738 -0.5516 -0.1648
 1817SOL     OW 5449   3.052   2.061   1.275 -0.1466  0.7319  0.0934
 1817SOL    HW1 5450   2.963   2.048   1.242  0.0587 -0.3566 -0.0711
 1817SOL    HW2 5451   3.061   1.998   1.346  0.4508  0.9178  0.1913
 1818SOL     OW 5452   1.592   2.953   0.487 -0.0317  0.1725 -0.6106
 1818SOL    HW1 5453   1.535   2.914   0.420 -1.4474 -0.9357  1.1217
 1818SOL    HW2 5454   1.597   2.886   0.555  2.0061  0.9487  0.0626
 1819SOL     OW 5455   0.102   1.023   3.980  0.4167  0.8852  0.3156
 1819SOL    HW1 5456   0.018   1.065   3.964 -1.1475 -1.5879  1.3252
 1819SOL    HW2 5457   0.119   0.973   3.899 -1.6937 -2.4802  1.7301
 1820SOL     OW 5458   1.752   0.176   3.934  0.6057 -0.3365  0.9122
 1820SOL    HW1 5459   1.729   0.264   3.902  0.6170  0.4949  3.0214
 1820SOL    HW2 5460   1.676   0.122   3.914  0.1841  0.3901  0.5022
 1821SOL     OW 5461   0.965   0.963   1.967 -0.5829  0.0515  0.2551
 1821SOL    HW1 5462   0.979   0.981   2.061  0.0037  1.1008 -0.0169
 1821SOL    HW2 5463   1.028   0.893   1.947  0.6035  1.0688  0.2631
 1822SOL     OW 5464   0.199   1.776   2.482 -0.0649  0.1277 -0.0506
 1822SOL    HW1 5465   0.113   1.818   2.479  0.6412  1.6268 -0.4431
 1822SOL    HW2 5466   0.192   1.712   2.552 -1.2729  0.7529  0.4446
 1823SOL     OW 5467   2.034   2.357   1.579  0.3098  0.1226 -0.3749
 1823SOL    HW1 5468   2.100   2.392   1.518  0.0248 -1.3265 -1.5914
 1823SOL    HW2 5469   2.082   2.291   1.630  0.0832 -0.0956 -0.4422
 1824SOL     OW 5470   2.138   0.700   1.020 -0.0961 -0.3562 -0.0882
 1824SOL    HW1 5471   2.204   0.760   1.056 -0.1258  0.4482 -1.3148
 1824SOL    HW2 5472   2.146   0.710   0.925 -1.5034 -0.7850 -0.2717
 1825SOL     OW 5473   4.006   2.643   1.836  0.0988  0.2154  0.0889
 1825SOL    HW1 5474   4.010   2.737   1.855  0.5676 -0.1023  1.7047
 1825SOL    HW2 5475   3.957   2.606   1.909 -2.3787 -0.5281 -1.8107
 1826SOL     OW 5476   0.585   1.560   0.578  0.1663 -0.2158  0.3090
 1826SOL    HW1 5477   0.533   1.518   0.646  0.1321  0.9566  1.0315
 1826SOL    HW2 5478   0.648   1.614   0.626 -0.1701  1.0035 -0.5818
 1827SOL     OW 5479   2.186   2.396   2.486  0.4150  0.2413  0.2816
 1827SOL    HW1 5480   2.110   2.390   2.544  0.8994 -0.4034  0.8684
 1827SOL    HW2 5481   2.159   2.352   2.406 -1.0158  2.9488 -0.8790
 1828SOL     OW 5482   1.295   2.176   2.749  0.0517 -0.5651  0.0488
 1828SOL    HW1 5483   1.228   2.235   2.715 -0.0855 -0.5399  0.3670
 1828SOL    HW2 5484   1.259   2.142   2.831  0.6134 -0.2085  0.4487
 1829SOL     OW 5485   0.122   2.558   2.675  0.3220 -0.0511  0.8245
 1829SOL    HW1 5486   0.038   2.596   2.700  0.1537  1.0973 -1.2959
 1829SOL    HW2 5487   0.115   2.465   2.699 -1.0039  0.3042  1.9024
 1830SOL     OW 5488   2.343   1.937   3.636 -0.0571 -0.0661 -0.1241
 1830SOL    HW1 5489   2.425   1.892   3.656  0.2319  0.4363 -0.1589
 1830SOL    HW2 5490   2.364   1.992   3.560  0.8476  3.4283  2.4101
 1831SOL     OW 5491   1.937   0.528   2.316  0.1669 -0.2917  0.3099
 1831SOL    HW1 5492   1.930   0.565   2.228  1.1178 -0.9217 -0.0550
 1831SOL    HW2 5493   2.020   0.562   2.350 -0.2016 -0.0470  0.9672
 1832SOL     OW 5494   2.660   2.746   0.833  0.6164 -0.1347  0.3011
 1832SOL    HW1 5495   2.638   2.821   0.778  0.4304 -0.6474 -0.3435
 1832SOL    HW2 5496   2.723   2.780   0.897 -0.6221  0.9392  1.0109
 1833SOL     OW 5497   1.803   0.852   0.278  0.1791 -0.5611  0.6607
 1833SOL    HW1 5498   1.893   0.882   0.261 -0.5031  0.3943 -1.6635
 1833SOL    HW2 5499   1.790   0.780   0.217 -0.7202 -0.5157  0.7836
 1834SOL     OW 5500   3.590   2.116   3.066 -0.7407 -0.2010  0.3042
 1834SOL    HW1 5501   3.648   2.190   3.085 -1.2249  0.0732  0.7288
 1834SOL    HW2 5502   3.572   2.123   2.973 -0.8644  0.2746  0.3606
 1835SOL     OW 5503   2.571   1.718   2.038  0.1597 -0.3041 -0.3926
 1835SOL    HW1 5504   2.637   1.746   2.100 -0.6185 -0.3632  0.4894
 1835SOL    HW2 5505   2.487   1.742   2.079 -0.3582  0.6175 -1.8850
 1836SOL     OW 5506   3.233   1.766   0.201 -0.3223  0.2662 -0.0605
 1836SOL    HW1 5507   3.194   1.704   0.140  2.6568  0.4780 -2.4247
 1836SOL    HW2 5508   3.269   1.711   0.271  0.6398 -0.5582 -1.1551
 1837SOL     OW 5509   3.772   3.819   3.859  0.3339  0.0750  0.2952
 1837SOL    HW1 5510   3.699   3.878   3.875  0.5845  0.5629 -0.2857
 1837SOL    HW2 5511   3.747   3.771   3.780 -0.4934 -1.6428  1.5412
 1838SOL     OW 5512   3.904   0.405   2.226 -0.2326 -0.0002 -0.2350
 1838SOL    HW1 5513   3.970   0.463   2.263  0.7907 -1.8107  0.9531
 1838SOL    HW2 5514   3.857   0.372   2.303  0.8083 -2.5370 -0.6043
 1839SOL     OW 5515   3.051   2.692   1.911 -0.3354  0.1801 -0.5539
 1839SOL    HW1 5516   3.102   2.769   1.887  0.9945 -0.8561 -1.1594
 1839SOL    HW2 5517   3.018   2.659   1.827  0.0138 -0.5299 -0.4121
 1840SOL     OW 5518   2.970   0.377   2.676  0.2698 -0.2744  0.1388
 1840SOL    HW1 5519   2.916   0.298   2.675  0.3249 -0.3088 -0.6702
 1840SOL    HW2 5520   3.004   0.382   2.766 -1.0643 -0.2515  0.6619
 1841SOL     OW 5521   3.442   3.338   3.216  0.4509 -0.4830  0.1958
 1841SOL    HW1 5522   3.363   3.386   3.241 -0.2183 -0.8598 -1.1217
 1841SOL    HW2 5523   3.513   3.389   3.255 -0.3721  0.3492  0.6802
 1842SOL     OW 5524   1.891   0.082   0.927  0.8604 -0.4018  0.7676
 1842SOL    HW1 5525   1.926   0.154   0.874 -1.5386 -1.5741 -2.7851
 1842SOL    HW2 5526   1.832   0.125   0.988  2.2416  0.8637  1.2963
 1843SOL     OW 5527   0.539   0.840   0.864 -0.0242 -0.0575  0.1716
 1843SOL    HW1 5528   0.505   0.754   0.888  0.2538 -0.1718  0.1666
 1843SOL    HW2 5529   0.466   0.900   0.878 -0.1968 -0.2837  0.2471
 1844SOL     OW 5530   3.437   0.547   0.049 -0.0348  0.4765  0.6286
 1844SOL    HW1 5531   3.472   0.593  -0.027  0.7313 -0.0818  0.6350
 1844SOL    HW2 5532   3.514   0.513   0.094 -0.5387  0.0121  1.1503
 1845SOL     OW 5533   2.280   3.705   3.257  0.2197  0.3364 -0.1633
 1845SOL    HW1 5534   2.210   3.643   3.276  0.4085  0.4589  1.0198
 1845SOL    HW2 5535   2.257   3.784   3.307  1.8097 -0.0578  1.3184
 1846SOL     OW 5536   3.257   3.225   1.969 -0.5205  0.2462 -0.3039
 1846SOL    HW1 5537   3.181   3.282   1.979  1.2434  2.6783  0.3219
 1846SOL    HW2 5538   3.308   3.265   1.898  0.1302 -1.3821 -0.7965
 1847SOL     OW 5539   3.035   1.138   0.380 -0.3615  1.0137 -0.0449
 1847SOL    HW1 5540   3.079   1.196   0.318 -0.2544  0.4521 -0.4892
 1847SOL    HW2 5541   3.065   1.050   0.358 -0.3857  0.7951  0.7441
 1848SOL     OW 5542   3.300   1.141   0.802  0.0820 -0.0866 -0.2969
 1848SOL    HW1 5543   3.275   1.087   0.727  1.7218 -1.9905  0.4490
 1848SOL    HW2 5544   3.272   1.090   0.878  1.7561  0.0171  0.4311
 1849SOL     OW 5545   1.823   1.569   2.955  0.1261  0.2088 -0.4332
 1849SOL    HW1 5546   1.868   1.486   2.941  2.6075  1.0618  1.6540
 1849SOL    HW2 5547   1.766   1.579   2.879  0.1363 -3.0994 -1.0135
 1850SOL     OW 5548   2.337   3.775   2.024 -0.2828  0.2568  0.0751
 1850SOL    HW1 5549   2.263   3.773   2.084  0.8566  2.6626  1.6769
 1850SOL    HW2 5550   2.333   3.861   1.982  0.0329 -0.6476 -1.9694
 1851SOL     OW 5551   0.925   3.451   0.082  0.1603  0.8139  0.3640
 1851SOL    HW1 5552   0.940   3.438  -0.012 -1.2594  0.1385  0.2002
 1851SOL    HW2 5553   0.915   3.546   0.091  0.1821  0.8754 -0.1955
 1852SOL     OW 5554   3.326   2.661   1.712 -0.0627 -0.2275  0.0013
 1852SOL    HW1 5555   3.349   2.725   1.645  1.6218  0.6565  1.3532
 1852SOL    HW2 5556   3.347   2.704   1.795  1.7883 -2.6988  0.9539
 1853SOL     OW 5557  -0.003   3.057   0.896  0.8836  0.6235 -0.4353
 1853SOL    HW1 5558  -0.043   3.134   0.856  0.2455  1.5724  1.8858
 1853SOL    HW2 5559   0.063   3.092   0.955  0.8606 -0.6280  0.3680
 1854SOL     OW 5560   1.075   0.163   3.561  0.5136  0.5196 -0.0390
 1854SOL    HW1 5561   1.079   0.253   3.529  1.9883  0.3749 -0.3232
 1854SOL    HW2 5562   1.119   0.111   3.494  2.0412 -0.0343  1.3169
 1855SOL     OW 5563   3.247   1.087   3.865 -0.1405  0.7399  0.6225
 1855SOL    HW1 5564   3.197   1.148   3.919 -0.0668  0.5201  0.9441
 1855SOL    HW2 5565   3.311   1.048   3.925 -0.8961 -0.4486  0.6905
 1856SOL     OW 5566   0.108   1.848   1.924 -0.1442  0.0157  0.2241
 1856SOL    HW1 5567   0.196   1.812   1.936 -0.5119 -0.8123  0.4780
 1856SOL    HW2 5568   0.090   1.895   2.005  0.3325  0.7838 -0.1031
 1857SOL     OW 5569   2.376   2.528   1.205 -0.2498  0.6838  0.2300
 1857SOL    HW1 5570   2.304   2.476   1.169 -1.0565  1.8563  0.1019
 1857SOL    HW2 5571   2.403   2.584   1.132 -1.2484  2.3963  1.1071
 1858SOL     OW 5572   0.667   0.054   0.091 -0.0516  0.2041  0.3582
 1858SOL    HW1 5573   0.753   0.013   0.100 -0.3769 -0.8627 -1.1297
 1858SOL    HW2 5574   0.623   0.004   0.023 -2.0708  0.4137  1.4398
 1859SOL     OW 5575   1.667   0.442   2.711 -0.2525 -0.3790  0.2754
 1859SOL    HW1 5576   1.629   0.359   2.683 -1.5331  0.3534 -0.2352
 1859SOL    HW2 5577   1.593   0.503   2.714  0.4553  0.4597  1.8152
 1860SOL     OW 5578   0.608   3.341   3.246  0.2279 -0.1774 -0.4541
 1860SOL    HW1 5579   0.517   3.358   3.224 -0.1121  0.0759  1.0744
 1860SOL    HW2 5580   0.652   3.331   3.161 -1.1808 -0.1683 -1.2034
 1861SOL     OW 5581   2.980   3.290   3.846  0.2319 -0.9900 -0.3334
 1861SOL    HW1 5582   3.051   3.354   3.852 -0.7704  0.1914 -0.5798
 1861SOL    HW2 5583   2.967   3.259   3.935 -0.2827  0.3028  0.0499
 1862SOL     OW 5584   3.744   1.159   2.532  0.1445 -0.0718  0.5544
 1862SOL    HW1 5585   3.808   1.210   2.483  0.2327 -0.3551  0.3659
 1862SOL    HW2 5586   3.766   1.173   2.624 -1.2256  2.0193  0.6115
 1863SOL     OW 5587   0.928   0.430   1.529  0.3607  0.5373 -0.3081
 1863SOL    HW1 5588   0.935   0.463   1.618  0.6507 -0.8886  0.2178
 1863SOL    HW2 5589   1.004   0.373   1.517 -1.6211 -2.4110 -0.0483
 1864SOL     OW 5590   2.634   3.616   2.435 -0.4476 -0.0004  0.2878
 1864SOL    HW1 5591   2.578   3.538   2.435 -0.8621  0.2878  1.0784
 1864SOL    HW2 5592   2.709   3.591   2.382 -0.6947 -0.8559  0.3225
 1865SOL     OW 5593   3.224   2.489   3.489  0.4333  0.1829 -0.0916
 1865SOL    HW1 5594   3.142   2.507   3.443 -0.1144 -0.1154  0.7549
 1865SOL    HW2 5595   3.206   2.411   3.540  1.2410  0.1372  0.1337
 1866SOL     OW 5596   1.479   3.194   3.319  0.0990  0.6017  0.2404
 1866SOL    HW1 5597   1.564   3.212   3.360 -0.4876  2.4573  0.7336
 1866SOL    HW2 5598   1.490   3.223   3.228 -0.1348  1.3539  0.4395
 1867SOL     OW 5599  -0.002   3.041   2.439 -0.0838  0.1463 -0.0438
 1867SOL    HW1 5600  -0.035   2.963   2.396  1.0810 -0.2633 -0.2322
 1867SOL    HW2 5601   0.052   3.008   2.512  0.6212  0.7492 -0.2727
 1868SOL     OW 5602   0.130   0.639   0.488  0.2971 -0.6259 -0.0403
 1868SOL    HW1 5603   0.145   0.549   0.517 -0.0345 -0.4643  0.6654
 1868SOL    HW2 5604   0.155   0.639   0.396 -0.6608 -1.6890 -0.3215
 1869SOL     OW 5605   0.826   1.401   0.359 -0.2365  0.2561  0.3302
 1869SOL    HW1 5606   0.841   1.344   0.284  1.0898 -1.0562  1.5494
 1869SOL    HW2 5607   0.732   1.421   0.355 -0.0227  1.0220 -2.1946
 1870SOL     OW 5608   2.281   2.219   3.610  0.5499  0.2386 -0.4667
 1870SOL    HW1 5609   2.289   2.260   3.524  2.5054 -0.3302 -0.6168
 1870SOL    HW2 5610   2.345   2.147   3.608  2.5810  1.7260  2.2959
 1871SOL     OW 5611   0.203   3.837   0.710 -0.0561  0.8182  0.5273
 1871SOL    HW1 5612   0.123   3.856   0.662 -0.7850 -0.3363  1.2123
 1871SOL    HW2 5613   0.205   3.741   0.716  2.5188  0.6477 -1.3369
 1872SOL     OW 5614   1.812   3.594   3.664 -0.0712  0.1700  0.4217
 1872SOL    HW1 5615   1.804   3.681   3.625  0.0276 -0.6071 -1.4734
 1872SOL    HW2 5616   1.734   3.547   3.634  0.1880 -0.5769  0.8858
 1873SOL     OW 5617   3.803   0.712   2.472  0.7755  0.2950 -0.3301
 1873SOL    HW1 5618   3.781   0.624   2.441  0.9673  0.3836 -0.7121
 1873SOL    HW2 5619   3.821   0.700   2.566 -0.0939  0.0829 -0.1779
 1874SOL     OW 5620   2.350   2.736   0.460  0.1993  0.1109  0.1017
 1874SOL    HW1 5621   2.338   2.739   0.555 -0.8127 -0.3611 -0.0000
 1874SOL    HW2 5622   2.444   2.744   0.447  0.1955  2.1436  1.0565
 1875SOL     OW 5623   2.071   2.570   1.811  0.1472 -0.2735 -0.0162
 1875SOL    HW1 5624   2.037   2.537   1.894 -0.8044  0.7459  0.0279
 1875SOL    HW2 5625   2.009   2.541   1.745  0.3041 -0.1533 -0.2202
 1876SOL     OW 5626   3.660   3.296   1.029 -0.0962 -0.1776  0.3658
 1876SOL    HW1 5627   3.614   3.214   1.046  1.3116 -1.1544 -0.3748
 1876SOL    HW2 5628   3.745   3.286   1.072  0.7194  0.2273 -1.0699
 1877SOL     OW 5629   3.168   3.008   0.558  0.1086  0.1333  0.1865
 1877SOL    HW1 5630   3.234   2.948   0.523  1.2865  0.7226  1.3038
 1877SOL    HW2 5631   3.090   2.954   0.569 -0.9945  0.2126 -4.8427
 1878SOL     OW 5632   1.848   1.953   3.909  0.1765 -0.0425 -0.0086
 1878SOL    HW1 5633   1.926   1.897   3.909 -0.3815 -0.8398  0.0810
 1878SOL    HW2 5634   1.842   1.986   3.998 -0.0437 -0.6404  0.2042
 1879SOL     OW 5635   2.958   3.084   1.100  0.6231  0.1844  0.6378
 1879SOL    HW1 5636   3.042   3.092   1.147  0.9487  0.9919 -0.0460
 1879SOL    HW2 5637   2.927   3.174   1.093 -0.4372 -0.1341  1.0926
 1880SOL     OW 5638   0.472   2.225   3.349  0.1147 -0.3570 -0.3700
 1880SOL    HW1 5639   0.448   2.224   3.441  0.2310 -0.7120 -0.3440
 1880SOL    HW2 5640   0.479   2.318   3.327  2.0027 -0.2535  0.4814
 1881SOL     OW 5641   3.285   3.690   2.771 -0.1682  0.5016 -0.5080
 1881SOL    HW1 5642   3.209   3.742   2.798 -0.2459 -0.3890  1.1096
 1881SOL    HW2 5643   3.264   3.662   2.682 -1.0294  1.5494 -0.6570
 1882SOL     OW 5644   1.198   1.290   0.916  0.4987 -0.2576 -0.1013
 1882SOL    HW1 5645   1.282   1.285   0.871  0.9121 -0.4100  0.6763
 1882SOL    HW2 5646   1.205   1.366   0.973  0.4697 -0.8327  0.6801
 1883SOL     OW 5647   0.693   1.000   2.003  0.6635  0.2914 -0.1502
 1883SOL    HW1 5648   0.776   0.971   1.966  0.1651 -0.4046 -0.7535
 1883SOL    HW2 5649   0.711   1.014   2.096  0.9210 -2.1710  0.2441
 1884SOL     OW 5650   1.622   3.763   1.657  0.0910  0.6411 -0.0141
 1884SOL    HW1 5651   1.660   3.679   1.684  1.9191  1.1429 -0.8891
 1884SOL    HW2 5652   1.549   3.776   1.717  1.9466  0.1397  2.5155
 1885SOL     OW 5653   3.008   3.790   2.820  0.6019  0.1684  0.1464
 1885SOL    HW1 5654   3.002   3.843   2.740 -2.0821  0.3151  0.3756
 1885SOL    HW2 5655   3.002   3.854   2.891 -1.8288 -0.2848  0.4224
 1886SOL     OW 5656   0.458   2.792   2.467  0.0393 -0.1566  0.1723
 1886SOL    HW1 5657   0.366   2.780   2.443 -0.1069  0.9450  0.1218
 1886SOL    HW2 5658   0.504   2.723   2.420 -0.7956 -0.9440  0.4782
 1887SOL     OW 5659   0.995   2.784   0.638 -0.0952  0.3809  0.5070
 1887SOL    HW1 5660   0.983   2.764   0.731  3.1636  0.2646  0.9979
 1887SOL    HW2 5661   0.964   2.705   0.592  3.2443 -1.9922  1.8977
 1888SOL     OW 5662   2.044   0.176   1.505 -1.0597  0.0247  0.2678
 1888SOL    HW1 5663   2.082   0.090   1.526 -0.5587  0.0196 -0.6226
 1888SOL    HW2 5664   2.017   0.211   1.590  2.0803  0.5660  1.1766
 1889SOL     OW 5665   0.710   2.715   0.288  0.1870 -0.3496 -0.3399
 1889SOL    HW1 5666   0.699   2.749   0.377  0.7072  0.5553 -0.6017
 1889SOL    HW2 5667   0.680   2.624   0.293  0.0750 -0.2720  0.7240
 1890SOL     OW 5668   2.473   3.509   0.739 -0.3974  0.0667 -0.1651
 1890SOL    HW1 5669   2.537   3.510   0.810  0.1457  0.2779 -0.6463
 1890SOL    HW2 5670   2.489   3.590   0.691 -1.6310  0.5534  0.2161
 1891SOL     OW 5671   0.968   3.930   3.043 -0.1786 -0.5090 -0.3937
 1891SOL    HW1 5672   0.962   4.005   3.101  1.4355 -1.0979  0.5951
 1891SOL    HW2 5673   0.998   3.967   2.959 -1.8375  0.2413 -0.7048
 1892SOL     OW 5674   2.743   0.245   3.747  0.2239 -0.2338 -0.3365
 1892SOL    HW1 5675   2.723   0.164   3.794  0.2146 -0.5120 -0.8228
 1892SOL    HW2 5676   2.702   0.234   3.661  1.4596 -0.3191 -0.9269
 1893SOL     OW 5677   3.899   3.724   0.120  0.1057  0.6353  0.2350
 1893SOL    HW1 5678   3.994   3.732   0.130  0.1037 -0.5777  1.5174
 1893SOL    HW2 5679   3.885   3.632   0.098 -0.7452  0.9111 -0.4147
 1894SOL     OW 5680   2.117   1.412   1.412  0.0222  0.0182  1.0924
 1894SOL    HW1 5681   2.058   1.345   1.445 -0.1123 -0.4701 -0.0701
 1894SOL    HW2 5682   2.082   1.435   1.326 -0.1257  1.8440  1.6096
 1895SOL     OW 5683   1.819   0.923   2.863 -0.0485 -0.1693 -0.0997
 1895SOL    HW1 5684   1.738   0.962   2.831  0.5317 -0.3244 -1.8205
 1895SOL    HW2 5685   1.793   0.879   2.944 -1.9598 -1.1947 -1.1966
 1896SOL     OW 5686   0.671   2.292   3.181  0.8398  0.6888  0.3177
 1896SOL    HW1 5687   0.613   2.331   3.115  1.1946  1.2943  0.3548
 1896SOL    HW2 5688   0.613   2.239   3.235  0.7184 -0.8315 -1.2174
 1897SOL     OW 5689   1.036   2.254   1.000 -0.1674 -0.0681 -0.9675
 1897SOL    HW1 5690   1.113   2.198   1.002 -1.6715 -2.2835 -0.3684
 1897SOL    HW2 5691   0.982   2.223   1.074 -1.2404  1.9921 -0.8052
 1898SOL     OW 5692   3.214   1.966   3.934  0.3125  0.0321  0.3335
 1898SOL    HW1 5693   3.177   2.051   3.910  0.1944 -0.1397 -0.1232
 1898SOL    HW2 5694   3.228   1.971   4.028 -1.7887 -0.2257  0.7199
 1899SOL     OW 5695   0.990   3.373   1.169 -0.7539 -0.3446 -0.1411
 1899SOL    HW1 5696   1.071   3.343   1.210 -1.9436 -1.1019  1.7824
 1899SOL    HW2 5697   1.014   3.392   1.078  1.8043  0.4809  0.6374
 1900SOL     OW 5698   0.769   0.722   1.663 -0.0145 -0.0103 -0.1061
 1900SOL    HW1 5699   0.854   0.766   1.670  0.4099 -0.9278  0.6892
 1900SOL    HW2 5700   0.768   0.686   1.574  1.3168 -1.7189  0.5200
 1901SOL     OW 5701   0.447   3.163   1.612 -0.3749 -0.0366  0.4049
 1901SOL    HW1 5702   0.446   3.083   1.666  2.4416 -0.4754 -0.0610
 1901SOL    HW2 5703   0.439   3.234   1.676 -0.6785 -0.6333  1.0507
 1902SOL     OW 5704   3.152   1.993   3.550  0.6621 -1.0401 -0.0681
 1902SOL    HW1 5705   3.202   1.974   3.471 -0.8547  0.3366 -1.4190
 1902SOL    HW2 5706   3.100   1.914   3.565  0.6688 -1.1645 -0.6851
 1903SOL     OW 5707   1.668   2.875   2.232  0.0820  0.1686 -0.0119
 1903SOL    HW1 5708   1.591   2.849   2.283 -0.3360 -0.8610 -1.1138
 1903SOL    HW2 5709   1.635   2.885   2.143  1.0187  0.8148 -0.2966
 1904SOL     OW 5710   2.258   1.811   0.255 -0.1473 -0.3124  0.2815
 1904SOL    HW1 5711   2.290   1.890   0.298 -0.9965  0.6243 -0.7584
 1904SOL    HW2 5712   2.163   1.821   0.254 -0.2027 -0.8158 -0.8269
 1905SOL     OW 5713   2.344   0.676   3.902 -0.3081  0.0090 -0.3816
 1905SOL    HW1 5714   2.258   0.632   3.902 -0.5476  0.4603  0.3522
 1905SOL    HW2 5715   2.402   0.613   3.944 -0.6769  0.4150  0.7773
 1906SOL     OW 5716   1.438   2.997   3.502  0.3422  0.3099  0.1229
 1906SOL    HW1 5717   1.485   3.039   3.574 -1.0116  1.4807  0.3753
 1906SOL    HW2 5718   1.439   3.063   3.432 -0.2760  0.0547 -0.1274
 1907SOL     OW 5719   2.012   0.970   0.821  0.0020  0.1245 -0.1459
 1907SOL    HW1 5720   2.074   1.000   0.754 -1.3631 -0.3890 -1.7155
 1907SOL    HW2 5721   2.008   0.875   0.809 -1.1493  0.1616 -0.1437
 1908SOL     OW 5722   2.689   1.130   2.645  0.6971 -0.0553 -0.7610
 1908SOL    HW1 5723   2.748   1.200   2.672  1.2596 -0.9849  0.5254
 1908SOL    HW2 5724   2.744   1.052   2.642 -0.1355 -0.6411 -1.1707
 1909SOL     OW 5725   2.398   0.763   2.015  0.3464  0.4684  0.3625
 1909SOL    HW1 5726   2.432   0.772   2.104  0.6453 -1.0126  0.4232
 1909SOL    HW2 5727   2.476   0.754   1.960  0.1510  0.9451  0.0063
 1910SOL     OW 5728   3.857   2.797   3.415  0.2365  0.2929 -0.6404
 1910SOL    HW1 5729   3.932   2.766   3.364 -0.0201  0.3415 -1.0600
 1910SOL    HW2 5730   3.890   2.873   3.463  0.9895 -0.8702  0.7440
 1911SOL     OW 5731   0.129   2.423   2.105 -0.2192  0.2778  0.2356
 1911SOL    HW1 5732   0.175   2.452   2.184 -0.1019 -0.1888  0.3474
 1911SOL    HW2 5733   0.180   2.459   2.033  1.1594 -1.3407  0.3206
 1912SOL     OW 5734   2.444   0.752   3.090 -0.2420  0.7273 -0.0189
 1912SOL    HW1 5735   2.531   0.732   3.123 -0.3983 -0.2593 -0.1799
 1912SOL    HW2 5736   2.459   0.805   3.012  0.3373 -1.5218 -1.5218
 1913SOL     OW 5737   2.760   3.357   0.801  0.0387 -0.2419 -0.6163
 1913SOL    HW1 5738   2.787   3.444   0.833  0.8170 -0.2775 -1.1398
 1913SOL    HW2 5739   2.733   3.310   0.880 -1.5653  0.8646 -0.4633
 1914SOL     OW 5740   1.739   1.866   0.989 -0.0174  0.0333 -0.5210
 1914SOL    HW1 5741   1.830   1.871   1.019 -0.0843  1.1388 -0.4497
 1914SOL    HW2 5742   1.718   1.956   0.962 -1.4467  0.0549  0.5255
 1915SOL     OW 5743   0.734   3.248   0.180  0.2511 -0.0215  0.3102
 1915SOL    HW1 5744   0.796   3.195   0.131 -1.3205  1.3676 -3.5559
 1915SOL    HW2 5745   0.770   3.337   0.177  0.0057  0.1455  1.5918
 1916SOL     OW 5746   0.074   2.260   3.381 -0.6253 -0.0359 -0.9303
 1916SOL    HW1 5747   0.038   2.197   3.445  0.9788  1.4530  1.5865
 1916SOL    HW2 5748   0.063   2.345   3.423  1.8178  0.8723 -1.9735
 1917SOL     OW 5749   0.600   1.088   1.664 -0.3057  0.0841  0.1306
 1917SOL    HW1 5750   0.568   1.132   1.742 -1.0923  0.2243 -0.2654
 1917SOL    HW2 5751   0.634   1.004   1.696  0.5493  0.6602  0.7874
 1918SOL     OW 5752   2.591   3.669   3.686  0.7140 -0.3877 -0.4802
 1918SOL    HW1 5753   2.645   3.731   3.736  0.3353 -0.0204 -0.5246
 1918SOL    HW2 5754   2.501   3.690   3.710  0.6090 -1.3093 -0.0541
 1919SOL     OW 5755   0.596   3.821   3.039  0.1463  0.7778  0.0219
 1919SOL    HW1 5756   0.582   3.823   3.133  0.9635 -1.6063  0.2480
 1919SOL    HW2 5757   0.679   3.867   3.026  1.2783 -0.9622  0.7939
 1920SOL     OW 5758   3.459   2.256   3.403  0.1232  0.2311  0.1972
 1920SOL    HW1 5759   3.504   2.177   3.374 -0.0289  0.0665  0.4108
 1920SOL    HW2 5760   3.520   2.297   3.464  0.5755  0.7399 -0.5887
 1921SOL     OW 5761   3.932   0.955   2.546  0.1080 -0.1405  0.1485
 1921SOL    HW1 5762   3.899   1.038   2.513 -2.0466 -0.0797  2.1872
 1921SOL    HW2 5763   3.864   0.891   2.525  1.3038 -1.2517 -0.5464
 1922SOL     OW 5764   1.825   2.296   1.928 -0.2296 -0.5747  0.8613
 1922SOL    HW1 5765   1.822   2.387   1.956  0.4951  0.2803 -1.6469
 1922SOL    HW2 5766   1.907   2.262   1.965  0.3368  0.2810  0.3894
 1923SOL     OW 5767   2.688   2.979   2.135 -0.3026  0.0922  0.2497
 1923SOL    HW1 5768   2.716   2.967   2.226 -1.3932 -0.5535  0.5190
 1923SOL    HW2 5769   2.717   2.900   2.090  0.9122  0.7430 -0.1634
 1924SOL     OW 5770   1.754   2.574   2.945  0.0490 -0.3041  0.0996
 1924SOL    HW1 5771   1.723   2.570   3.036  1.8473  1.5306  0.8433
 1924SOL    HW2 5772   1.806   2.494   2.934 -0.4212 -0.6845  0.5669
 1925SOL     OW 5773   2.643   2.231   2.345 -0.5899 -0.0505  0.0713
 1925SOL    HW1 5774   2.616   2.154   2.395  1.0027 -0.5028  0.2817
 1925SOL    HW2 5775   2.567   2.289   2.346 -0.7687 -0.2444  2.6267
 1926SOL     OW 5776   1.112   0.215   1.502  0.1188 -0.4471  0.7773
 1926SOL    HW1 5777   1.091   0.135   1.453 -0.9129 -0.4832  1.2450
 1926SOL    HW2 5778   1.128   0.185   1.592  1.1628 -0.2868  0.6526
 1927SOL     OW 5779   1.855   1.591   0.505  0.3496  0.3098  0.0660
 1927SOL    HW1 5780   1.858   1.642   0.586  1.0044  1.0581 -0.4127
 1927SOL    HW2 5781   1.875   1.655   0.436  0.7370 -0.5122 -0.5955
 1928SOL     OW 5782   3.207   1.746   3.796  0.6741 -0.3021 -0.0974
 1928SOL    HW1 5783   3.207   1.830   3.843  0.6528 -0.2693 -0.1560
 1928SOL    HW2 5784   3.287   1.748   3.744  0.6900 -0.3322 -0.0747
 1929SOL     OW 5785   2.998   0.928   2.372  0.1068 -0.4617 -0.2941
 1929SOL    HW1 5786   2.979   0.862   2.305  3.4015 -2.0327  0.1125
 1929SOL    HW2 5787   3.023   1.006   2.323 -0.0381 -0.7488 -0.8325
 1930SOL     OW 5788   0.344   0.079   0.284 -0.2115  0.8801 -0.3574
 1930SOL    HW1 5789   0.258   0.037   0.277 -0.3064  0.7202  1.3906
 1930SOL    HW2 5790   0.324   0.170   0.302  0.0067  1.1044 -1.1997
 1931SOL     OW 5791   2.845   1.322   2.153 -0.0222 -0.4095  0.0746
 1931SOL    HW1 5792   2.802   1.245   2.190 -0.2656  0.1900  1.0456
 1931SOL    HW2 5793   2.846   1.386   2.223  1.0107  0.1645 -0.4326
 1932SOL     OW 5794   3.340   2.462   3.991  0.3934 -0.1411 -0.6378
 1932SOL    HW1 5795   3.346   2.403   3.916 -0.3006 -1.6688  0.4525
 1932SOL    HW2 5796   3.248   2.462   4.015  0.2757  1.8615 -0.9299
 1933SOL     OW 5797   1.983   1.716   1.182  0.2401 -0.6358 -0.0670
 1933SOL    HW1 5798   1.986   1.808   1.156 -1.0147 -0.6780 -0.4261
 1933SOL    HW2 5799   1.960   1.670   1.101  0.5042 -1.2376  0.1950
 1934SOL     OW 5800   1.524   3.742   0.196  0.3645 -0.3849  0.0517
 1934SOL    HW1 5801   1.524   3.813   0.260  0.1295 -1.6517  1.5295
 1934SOL    HW2 5802   1.604   3.755   0.145 -0.5744  1.9492 -0.9497
 1935SOL     OW 5803   2.445   0.134   0.632 -0.3019  0.1456  0.6783
 1935SOL    HW1 5804   2.360   0.102   0.663 -1.0592  1.2520 -0.2127
 1935SOL    HW2 5805   2.469   0.074   0.562 -2.1619  1.9204 -1.6320
 1936SOL     OW 5806   2.077   2.656   2.503  0.2602 -0.7054  0.0745
 1936SOL    HW1 5807   2.006   2.600   2.471 -0.6135 -1.1354  2.5995
 1936SOL    HW2 5808   2.153   2.597   2.510  0.1878 -0.8349 -0.2098
 1937SOL     OW 5809   2.022   0.158  -0.022  0.5906 -0.2684 -0.9304
 1937SOL    HW1 5810   2.032   0.102   0.055 -0.6571  0.2360 -0.3797
 1937SOL    HW2 5811   1.930   0.184  -0.022  1.5165  3.9106  0.3908
 1938SOL     OW 5812   0.859   3.114   3.235 -0.7809  0.1043 -0.0005
 1938SOL    HW1 5813   0.827   3.140   3.148  1.9174  0.6755 -0.9076
 1938SOL    HW2 5814   0.932   3.172   3.252 -0.5564 -0.7501  2.1934
 1939SOL     OW 5815   2.492   0.393   3.067  0.0834 -0.1577  0.7040
 1939SOL    HW1 5816   2.508   0.309   3.025  0.4622  0.4364 -0.3780
 1939SOL    HW2 5817   2.417   0.430   3.020  0.8707  0.7685  0.1489
 1940SOL     OW 5818   1.722   3.497   0.142 -0.0406  0.4620 -0.1118
 1940SOL    HW1 5819   1.661   3.445   0.194  0.8447  0.2133  0.7019
 1940SOL    HW2 5820   1.770   3.549   0.206  1.3903 -0.1876 -0.6172
 1941SOL     OW 5821   0.735   3.280   2.280  0.2207  0.2801 -0.6079
 1941SOL    HW1 5822   0.682   3.203   2.303 -0.8431  0.9577 -0.6966
 1941SOL    HW2 5823   0.766   3.313   2.365  1.0500 -0.4762 -0.5978
 1942SOL     OW 5824   0.564   2.584   2.286 -0.2409 -0.2080  0.5261
 1942SOL    HW1 5825   0.609   2.571   2.202 -0.4840  2.5386 -0.1092
 1942SOL    HW2 5826   0.634   2.589   2.350  0.1126  0.1966  0.1149
 1943SOL     OW 5827   0.387   1.320   1.276 -0.2560  0.1065  0.3311
 1943SOL    HW1 5828   0.441   1.393   1.305  0.5065 -0.0521 -0.6419
 1943SOL    HW2 5829   0.348   1.285   1.356  0.6753  0.5509  0.9849
 1944SOL     OW 5830   3.062   1.503   0.500 -0.1560 -0.1929  0.2241
 1944SOL    HW1 5831   2.970   1.507   0.525 -0.8994  0.3754 -2.2978
 1944SOL    HW2 5832   3.103   1.576   0.546 -0.3819 -1.7702  3.1822
 1945SOL     OW 5833   3.102   2.829   2.964 -0.5886 -0.1480 -0.5059
 1945SOL    HW1 5834   3.084   2.848   2.871 -0.6113 -0.8624 -0.6489
 1945SOL    HW2 5835   3.017   2.810   3.002 -0.7684  1.5168 -0.0053
 1946SOL     OW 5836   2.552   1.333   2.469  0.0131 -0.0074 -0.3163
 1946SOL    HW1 5837   2.626   1.392   2.454 -0.3802  0.4350 -0.5052
 1946SOL    HW2 5838   2.586   1.268   2.531 -0.4628  2.2359  2.5297
 1947SOL     OW 5839   0.082   2.277   3.104 -0.1491  0.2339 -0.7831
 1947SOL    HW1 5840   0.116   2.364   3.082 -0.6876  0.6507 -0.0139
 1947SOL    HW2 5841   0.083   2.275   3.199  0.6209 -0.9240 -0.7999
 1948SOL     OW 5842   0.331   1.899   0.372  0.2453 -0.6502 -0.0889
 1948SOL    HW1 5843   0.417   1.941   0.366 -0.8377  1.6318 -1.2243
 1948SOL    HW2 5844   0.284   1.951   0.438 -0.8183 -0.7500 -0.7473
 1949SOL     OW 5845   2.220   1.636   0.963  0.0880  0.8422 -0.0346
 1949SOL    HW1 5846   2.298   1.683   0.992  1.4268 -2.2885  1.9308
 1949SOL    HW2 5847   2.163   1.633   1.040 -0.7450  0.7553 -0.6390
 1950SOL     OW 5848   0.681   0.295   1.511 -0.4472  0.3735  0.5155
 1950SOL    HW1 5849   0.615   0.315   1.578 -0.0495  0.3916  0.9065
 1950SOL    HW2 5850   0.761   0.335   1.544  0.1900 -1.1594  0.9130
 1951SOL     OW 5851   2.061   0.582   1.641 -0.9720  0.1916  0.0117
 1951SOL    HW1 5852   2.007   0.614   1.568 -2.7678 -1.2020  0.6502
 1951SOL    HW2 5853   2.023   0.497   1.664  0.6338 -0.1993  1.4653
 1952SOL     OW 5854   1.806   2.401   3.621 -0.5201  0.7191 -0.1322
 1952SOL    HW1 5855   1.805   2.315   3.664 -0.3287  1.0281  0.5040
 1952SOL    HW2 5856   1.875   2.449   3.667 -0.4157  1.1087 -0.6939
 1953SOL     OW 5857   3.169   1.221   3.614 -0.0093 -0.0838  0.4244
 1953SOL    HW1 5858   3.192   1.142   3.663  2.9982  0.0896 -0.4708
 1953SOL    HW2 5859   3.082   1.203   3.578 -0.1473 -2.2492  1.6841
 1954SOL     OW 5860   2.656   1.408   1.401  0.1525 -0.4268  0.0101
 1954SOL    HW1 5861   2.718   1.480   1.388  0.5493 -0.1703  2.6698
 1954SOL    HW2 5862   2.710   1.329   1.402  0.0501 -0.5046 -0.4447
 1955SOL     OW 5863   0.972   3.488   0.403  0.1086 -0.1098  0.1227
 1955SOL    HW1 5864   0.940   3.506   0.315  0.7013  1.6625  0.2413
 1955SOL    HW2 5865   0.912   3.535   0.461 -0.0465 -0.9430  0.6580
 1956SOL     OW 5866   3.625   2.266   0.693  0.7723  0.4827  0.0402
 1956SOL    HW1 5867   3.534   2.266   0.663  0.2137  0.6336  1.6286
 1956SOL    HW2 5868   3.672   2.318   0.628 -0.1858  0.0241 -1.0410
 1957SOL     OW 5869   4.012   0.097   3.214  0.6914  0.1456 -0.0091
 1957SOL    HW1 5870   3.938   0.151   3.240  1.5332  0.4577  1.9492
 1957SOL    HW2 5871   3.982   0.007   3.226 -0.5534  0.0983 -2.8209
 1958SOL     OW 5872   2.393   0.474   1.886 -0.2529  0.0844  0.4528
 1958SOL    HW1 5873   2.374   0.424   1.807  1.4836 -0.6807  0.4633
 1958SOL    HW2 5874   2.453   0.543   1.858  0.4357 -0.2360  1.0697
 1959SOL     OW 5875   2.636   2.848   3.410  0.2068 -0.1804  0.2791
 1959SOL    HW1 5876   2.607   2.929   3.452  0.2649 -1.1211  2.2929
 1959SOL    HW2 5877   2.732   2.852   3.413  0.3398  1.2218 -2.9003
 1960SOL     OW 5878   3.448   2.616   0.218 -0.5396 -0.0831 -0.1016
 1960SOL    HW1 5879   3.441   2.580   0.307 -0.0219 -0.1051 -0.0654
 1960SOL    HW2 5880   3.391   2.560   0.165 -0.1723 -0.6186  0.0592
 1961SOL     OW 5881   3.810   2.983   3.683  0.3398 -0.3930 -0.1333
 1961SOL    HW1 5882   3.722   2.949   3.668  0.5421 -1.1711  0.3743
 1961SOL    HW2 5883   3.821   2.979   3.777  1.8116 -2.7060 -0.3116
 1962SOL     OW 5884   2.894   3.078   2.685 -0.2042 -0.2713  0.1650
 1962SOL    HW1 5885   2.857   3.002   2.729 -1.8170  0.4854  0.1935
 1962SOL    HW2 5886   2.878   3.151   2.745 -0.5103  0.4200 -0.7307
 1963SOL     OW 5887   1.869   0.284   1.320  0.1050  0.2724 -0.3972
 1963SOL    HW1 5888   1.824   0.269   1.404  0.0145  0.1617 -0.4659
 1963SOL    HW2 5889   1.961   0.268   1.339  0.0367 -0.1515 -0.4186
 1964SOL     OW 5890   1.147   1.782   0.717 -0.6499 -0.1756  0.1268
 1964SOL    HW1 5891   1.169   1.798   0.809 -0.3652  0.7112 -0.0875
 1964SOL    HW2 5892   1.170   1.691   0.703 -2.1227 -0.7796  1.3456
 1965SOL     OW 5893   0.564   1.255   1.910  0.1745 -0.0620 -0.1194
 1965SOL    HW1 5894   0.637   1.194   1.908 -0.9375 -1.4423 -0.0558
 1965SOL    HW2 5895   0.535   1.255   2.001  0.7779  1.3588  0.1015
 1966SOL     OW 5896   0.836   3.494   2.837  0.3241  0.2429  0.7791
 1966SOL    HW1 5897   0.746   3.516   2.815  0.8072  0.4800 -1.0643
 1966SOL    HW2 5898   0.859   3.555   2.907 -0.3497  1.4585 -0.0276
 1967SOL     OW 5899   1.104   2.598   3.214 -0.1515 -0.1830  0.6461
 1967SOL    HW1 5900   1.054   2.637   3.286 -1.1713  0.1716 -0.2386
 1967SOL    HW2 5901   1.040   2.545   3.166  0.6631 -0.9330  0.3599
 1968SOL     OW 5902   2.205   3.665   2.902  0.4973 -0.3117  0.1324
 1968SOL    HW1 5903   2.220   3.615   2.982 -0.9372  0.4827  0.9381
 1968SOL    HW2 5904   2.227   3.755   2.925 -1.3744  0.1874  0.1407
 1969SOL     OW 5905   0.207   0.337   1.772 -0.1229 -0.2498 -0.4336
 1969SOL    HW1 5906   0.145   0.325   1.843 -0.5543 -0.8412 -0.8975
 1969SOL    HW2 5907   0.160   0.308   1.694  0.5679 -0.2438 -0.8612
 1970SOL     OW 5908   1.507   3.382   0.288  0.3974 -0.2343  0.5156
 1970SOL    HW1 5909   1.467   3.457   0.331  0.3943 -0.1087  0.2957
 1970SOL    HW2 5910   1.509   3.313   0.355  1.5883  0.3588  1.1222
 1971SOL     OW 5911   3.108   0.120   0.552 -0.0279 -0.5981  0.2495
 1971SOL    HW1 5912   3.172   0.171   0.601 -0.2209 -0.7217  0.6291
 1971SOL    HW2 5913   3.160   0.076   0.484  0.2209 -0.3403  0.2721
 1972SOL     OW 5914   0.007   3.579   1.890 -0.5012 -0.0389 -0.3091
 1972SOL    HW1 5915   0.097   3.563   1.861  1.3832  2.9264  2.9985
 1972SOL    HW2 5916  -0.043   3.591   1.809  2.3330 -0.6127 -2.2779
 1973SOL     OW 5917   1.866   2.448   2.528 -0.9623  0.0244 -1.0400
 1973SOL    HW1 5918   1.814   2.525   2.548 -0.3497  0.4683 -1.0982
 1973SOL    HW2 5919   1.817   2.374   2.564  0.0259  0.7466  2.0426
 1974SOL     OW 5920   2.362   1.418   3.475 -0.2818  0.4915  0.6584
 1974SOL    HW1 5921   2.411   1.417   3.558  1.3949 -2.0058 -0.2319
 1974SOL    HW2 5922   2.326   1.329   3.468 -1.2957  0.9960 -0.7943
 1975SOL     OW 5923   2.586   0.081   2.911 -0.3577 -0.7540 -0.5398
 1975SOL    HW1 5924   2.565   0.002   2.961 -0.6041 -0.4115 -0.0897
 1975SOL    HW2 5925   2.535   0.073   2.830  1.0347 -1.9280 -1.3279
 1976SOL     OW 5926   2.078   3.582   2.417  0.4608 -0.3274 -0.1214
 1976SOL    HW1 5927   2.036   3.609   2.499  1.9265  0.4454  0.4055
 1976SOL    HW2 5928   2.106   3.492   2.433  1.1759 -0.0206  0.4284
 1977SOL     OW 5929   1.664   0.035   2.152 -0.1877 -0.3177 -0.1590
 1977SOL    HW1 5930   1.672   0.063   2.061  1.9745 -0.7182 -0.1405
 1977SOL    HW2 5931   1.623  -0.052   2.147  0.7121 -0.7157 -0.8199
 1978SOL     OW 5932   2.317   1.226   1.161 -0.0770  0.1854 -0.0244
 1978SOL    HW1 5933   2.249   1.165   1.133  0.0379  0.0135  0.0635
 1978SOL    HW2 5934   2.274   1.311   1.165 -0.4567 -0.0321  0.6736
 1979SOL     OW 5935   2.443   1.103   2.739  0.4552  0.1118  0.1305
 1979SOL    HW1 5936   2.465   1.152   2.818 -0.1643  0.5220  0.0567
 1979SOL    HW2 5937   2.513   1.124   2.677 -1.1376  3.1831 -0.8791
 1980SOL     OW 5938   3.354   2.307   2.184  0.2449  0.2871  0.1301
 1980SOL    HW1 5939   3.408   2.241   2.227  1.2539  0.8560 -0.2444
 1980SOL    HW2 5940   3.278   2.258   2.151  1.3432 -0.8324 -0.8226
 1981SOL     OW 5941   0.644   1.892   3.915 -0.1931  0.6795  0.0169
 1981SOL    HW1 5942   0.558   1.856   3.935  0.2190 -0.9654 -0.9781
 1981SOL    HW2 5943   0.626   1.977   3.873 -1.3467  0.1231 -0.6597
 1982SOL     OW 5944   0.271   2.640   1.779  0.7941 -0.5310  0.3468
 1982SOL    HW1 5945   0.179   2.638   1.805  0.9016  0.0527  0.8004
 1982SOL    HW2 5946   0.271   2.619   1.686  0.3525 -2.2713  0.7052
 1983SOL     OW 5947   3.669   2.768   2.327 -0.3209 -0.8176 -0.5586
 1983SOL    HW1 5948   3.604   2.710   2.367  0.4335 -1.2114  0.1327
 1983SOL    HW2 5949   3.660   2.850   2.375 -1.4282 -0.3219 -1.5748
 1984SOL     OW 5950   0.991   2.325   3.643  0.5086  0.0015  0.5374
 1984SOL    HW1 5951   1.078   2.334   3.682  0.5717  0.1738  0.3563
 1984SOL    HW2 5952   1.008   2.306   3.551  0.3530  0.2689  0.4523
 1985SOL     OW 5953   3.123   2.865   2.698  1.1676 -0.3149  0.4965
 1985SOL    HW1 5954   3.171   2.936   2.654 -1.2965 -0.2196 -2.3241
 1985SOL    HW2 5955   3.144   2.787   2.646 -0.7152 -0.4843 -0.0678
 1986SOL     OW 5956   2.933   3.467   3.593 -0.5430 -0.1741  0.1623
 1986SOL    HW1 5957   2.962   3.485   3.682 -0.8125  0.7859  0.0686
 1986SOL    HW2 5958   2.843   3.436   3.603 -1.4954  2.3623  0.0917
 1987SOL     OW 5959   2.428   2.589   1.988 -0.1138 -0.5566  0.1923
 1987SOL    HW1 5960   2.352   2.635   2.025 -0.8343 -0.5794 -1.2099
 1987SOL    HW2 5961   2.433   2.507   2.037  1.3685  1.0269  2.9595
 1988SOL     OW 5962   0.809   1.009   0.121 -0.4108  0.2457  0.1358
 1988SOL    HW1 5963   0.883   0.949   0.118 -0.7119 -0.0864 -0.9742
 1988SOL    HW2 5964   0.753   0.976   0.191 -1.0976 -1.4185 -1.1301
 1989SOL     OW 5965   0.327   1.907   2.227 -0.0039 -0.6235 -0.2957
 1989SOL    HW1 5966   0.232   1.904   2.233 -0.0872 -0.1238 -1.1217
 1989SOL    HW2 5967   0.345   1.980   2.168  0.9060 -0.5040  0.1093
 1990SOL     OW 5968   0.426   0.199   3.742 -0.2254  0.2913 -0.6258
 1990SOL    HW1 5969   0.343   0.240   3.764 -0.7652 -0.1314 -1.8248
 1990SOL    HW2 5970   0.423   0.114   3.785  0.3273  0.9186  0.7340
 1991SOL     OW 5971   1.652   2.943   1.736 -0.8032  0.0081 -0.7032
 1991SOL    HW1 5972   1.567   2.970   1.702 -0.6943 -0.1030 -1.0642
 1991SOL    HW2 5973   1.685   2.880   1.672 -1.3167 -1.4600  0.4368
 1992SOL     OW 5974   3.329   0.589   1.443 -0.0956  0.1663  0.6179
 1992SOL    HW1 5975   3.350   0.589   1.350  0.3101 -0.0799  0.7072
 1992SOL    HW2 5976   3.378   0.663   1.479  0.1935 -0.0748  0.7293
 1993SOL     OW 5977   0.621   3.077   2.448  0.7645 -0.5069  0.5615
 1993SOL    HW1 5978   0.549   3.115   2.499  0.3961  1.0947 -1.0509
 1993SOL    HW2 5979   0.589   2.989   2.426 -0.2818 -0.1869  0.7147
 1994SOL     OW 5980   1.472   3.794   3.368  0.2580 -0.5860  0.8101
 1994SOL    HW1 5981   1.406   3.725   3.380  1.6566 -2.3724 -1.0323
 1994SOL    HW2 5982   1.549   3.762   3.416  0.7129  0.0184  0.4962
 1995SOL     OW 5983   2.659   2.912   3.841  0.7787 -0.2406  0.1103
 1995SOL    HW1 5984   2.613   2.841   3.795 -0.8845 -0.0658  1.4075
 1995SOL    HW2 5985   2.712   2.953   3.773 -0.4641 -0.9074 -1.3416
 1996SOL     OW 5986   1.619   2.511   3.821 -0.1587 -0.1264  0.3744
 1996SOL    HW1 5987   1.689   2.446   3.827 -1.1727 -1.6093 -2.2055
 1996SOL    HW2 5988   1.538   2.460   3.830 -1.0759  1.6410  4.1476
 1997SOL     OW 5989   2.899   3.042   3.403 -0.4915  0.6040 -0.3776
 1997SOL    HW1 5990   2.987   3.076   3.415  0.4814 -1.8798 -0.0060
 1997SOL    HW2 5991   2.905   2.949   3.424 -2.9915  0.1364 -1.3146
 1998SOL     OW 5992   0.918   1.563   3.820  0.2065  0.1234  0.2896
 1998SOL    HW1 5993   0.906   1.491   3.882  0.4822  1.3632  1.8530
 1998SOL    HW2 5994   0.837   1.613   3.825  0.6438  0.8337  0.5029
 1999SOL     OW 5995   1.601   3.833   3.137 -0.3220  0.3548  0.0920
 1999SOL    HW1 5996   1.537   3.821   3.067 -0.4151  3.1379 -0.4285
 1999SOL    HW2 5997   1.548   3.831   3.217 -0.4353 -1.2809  0.0128
 2000SOL     OW 5998   3.283   1.445   1.894 -0.7885  0.4259  0.4659
 2000SOL    HW1 5999   3.343   1.466   1.823 -0.6203  0.0683  0.5006
 2000SOL    HW2 6000   3.300   1.512   1.960  0.6281 -0.5085  1.1047
 2001SOL     OW 6001   3.384   2.508   0.768 -0.1133  0.0644  0.0496
 2001SOL    HW1 6002   3.404   2.448   0.840  0.7186 -2.4542 -2.1100
 2001SOL    HW2 6003   3.432   2.588   0.789  2.7031 -1.6790  0.8405
 2002SOL     OW 6004   0.384   2.776   1.416  0.0135  0.1336  0.0009
 2002SOL    HW1 6005   0.397   2.683   1.396 -1.4643  0.3120 -2.1790
 2002SOL    HW2 6006   0.460   2.820   1.379 -0.3965 -0.0312 -1.0898
 2003SOL     OW 6007   3.094   1.602   1.679 -0.1524 -0.2499 -0.4871
 2003SOL    HW1 6008   3.065   1.552   1.755  0.8797 -1.4447 -0.8337
 2003SOL    HW2 6009   3.157   1.665   1.714 -0.1759 -0.3536 -0.2564
 2004SOL     OW 6010   0.194   1.458   0.709  0.0888  0.6860 -0.0892
 2004SOL    HW1 6011   0.132   1.394   0.745  0.4614  0.8795  0.9308
 2004SOL    HW2 6012   0.238   1.411   0.637  0.7549 -0.4242  1.0053
 2005SOL     OW 6013   0.478   3.356   3.521 -0.0992 -0.5066  0.6471
 2005SOL    HW1 6014   0.570   3.360   3.496  0.2053  0.4411  1.7969
 2005SOL    HW2 6015   0.438   3.295   3.459  1.4594 -1.5579  0.6265
 2006SOL     OW 6016   0.899   0.726   3.352 -0.1054 -0.2922  0.2761
 2006SOL    HW1 6017   0.922   0.815   3.325 -1.2286 -0.6890 -2.3190
 2006SOL    HW2 6018   0.899   0.728   3.448 -1.2845  2.8046  0.3092
 2007SOL     OW 6019   3.738   1.306   3.407  0.2246  0.3948 -0.6565
 2007SOL    HW1 6020   3.777   1.255   3.478 -0.9905 -0.0740 -0.2868
 2007SOL    HW2 6021   3.699   1.240   3.349 -0.8467  0.8669 -0.4918
 2008SOL     OW 6022   2.517   2.644   2.485 -0.2596  0.3138 -0.2574
 2008SOL    HW1 6023   2.505   2.706   2.556  0.2815  0.2496 -0.1065
 2008SOL    HW2 6024   2.576   2.687   2.424  1.3035 -0.5976  0.5525
 2009SOL     OW 6025   3.583   1.646   1.286  0.2334 -0.0067  0.0099
 2009SOL    HW1 6026   3.636   1.575   1.321  0.7045 -0.0780 -0.8143
 2009SOL    HW2 6027   3.567   1.704   1.361  1.7534  0.1783  0.2114
 2010SOL     OW 6028   2.978   0.746   3.280 -0.3287  0.0714  0.0724
 2010SOL    HW1 6029   3.036   0.670   3.281  1.7029  1.4753  3.1653
 2010SOL    HW2 6030   3.029   0.815   3.238 -0.3048  0.9142  1.4231
 2011SOL     OW 6031   3.686   2.633   1.285 -0.5124 -0.2423  0.3110
 2011SOL    HW1 6032   3.596   2.666   1.292 -1.1019 -0.8497 -3.0637
 2011SOL    HW2 6033   3.739   2.710   1.266 -0.6583 -0.1818  0.1519
 2012SOL     OW 6034   3.346   1.595   2.420  0.1413 -0.9077 -0.1891
 2012SOL    HW1 6035   3.332   1.660   2.489  1.1315  0.4244 -1.1776
 2012SOL    HW2 6036   3.437   1.567   2.431 -0.0620 -1.5905 -0.2174
 2013SOL     OW 6037   3.933   0.440   0.723  0.6628  0.0993 -0.3072
 2013SOL    HW1 6038   3.866   0.501   0.752 -0.1148  0.1480 -2.0630
 2013SOL    HW2 6039   3.997   0.438   0.794 -1.7016 -0.7842  1.9252
 2014SOL     OW 6040   3.866   2.719   2.970  0.2957 -0.4061  0.0570
 2014SOL    HW1 6041   3.786   2.765   2.946  0.4463 -0.3584 -0.3579
 2014SOL    HW2 6042   3.935   2.764   2.923  0.7291  0.2818  1.3183
 2015SOL     OW 6043   2.239   2.190   3.328 -0.0671 -0.1513  0.4730
 2015SOL    HW1 6044   2.296   2.216   3.256  0.0095 -0.6739  0.3449
 2015SOL    HW2 6045   2.187   2.268   3.346  1.8403  0.9318  1.7123
 2016SOL     OW 6046   0.508   0.617   1.623  0.0470 -0.0896  0.5642
 2016SOL    HW1 6047   0.578   0.641   1.683  0.6026 -1.5901  0.5470
 2016SOL    HW2 6048   0.490   0.697   1.574  2.5294  0.0558 -0.2148
 2017SOL     OW 6049   0.662   1.627   3.772 -0.0263  0.3500  0.4102
 2017SOL    HW1 6050   0.677   1.629   3.678  1.9494 -0.0167  0.6633
 2017SOL    HW2 6051   0.585   1.681   3.786 -1.0946 -0.5863 -1.5239
 2018SOL     OW 6052   3.326   1.820   2.630  0.0215 -0.2503  0.0200
 2018SOL    HW1 6053   3.250   1.777   2.669 -2.0673 -0.0514 -3.3680
 2018SOL    HW2 6054   3.302   1.913   2.627  0.6632 -0.0929 -0.4904
 2019SOL     OW 6055   2.741   0.872   2.150 -0.3610  0.6705  0.0474
 2019SOL    HW1 6056   2.785   0.791   2.125  0.6252  0.7388  1.4747
 2019SOL    HW2 6057   2.722   0.915   2.066  1.7499  0.3607 -0.6522
 2020SOL     OW 6058   0.488   0.464   0.483  0.2915  0.0577  0.4800
 2020SOL    HW1 6059   0.573   0.437   0.449  0.9113  3.0106 -0.6497
 2020SOL    HW2 6060   0.488   0.435   0.575  2.2444 -0.5670  0.3155
 2021SOL     OW 6061   2.832   1.051   2.951  0.1865  0.6005 -0.0969
 2021SOL    HW1 6062   2.850   1.080   3.040 -2.7717  0.9476  0.4900
 2021SOL    HW2 6063   2.803   1.131   2.906  1.3189  0.3621 -1.3128
 2022SOL     OW 6064   2.082   3.062   2.061 -0.5591  0.2913 -0.2646
 2022SOL    HW1 6065   2.019   3.060   1.989  0.7309 -0.9718 -1.4466
 2022SOL    HW2 6066   2.085   2.972   2.093  0.3889  0.4003 -0.0150
 2023SOL     OW 6067   2.418   3.428   2.834 -0.0863 -0.2182 -0.6192
 2023SOL    HW1 6068   2.389   3.372   2.906 -0.5239  0.3447 -0.3432
 2023SOL    HW2 6069   2.454   3.506   2.877  0.0072 -0.0492 -1.0014
 2024SOL     OW 6070   1.080   3.313   2.595 -0.2001  0.6774  0.6777
 2024SOL    HW1 6071   1.080   3.338   2.687 -3.2777  1.2701  0.6380
 2024SOL    HW2 6072   1.092   3.218   2.596 -1.9489  0.4231  1.8762
 2025SOL     OW 6073   2.115   2.998   0.282 -0.4847 -0.2481 -0.5197
 2025SOL    HW1 6074   2.165   3.016   0.362  0.3395  0.9451 -1.2651
 2025SOL    HW2 6075   2.025   3.020   0.304 -0.7277 -2.2522  0.7903
 2026SOL     OW 6076   1.128   0.508   0.826  0.0836 -0.6763  0.4611
 2026SOL    HW1 6077   1.109   0.542   0.914 -0.1510  0.5950 -0.0601
 2026SOL    HW2 6078   1.133   0.413   0.838 -1.2800 -0.6426  1.6092
 2027SOL     OW 6079   1.208   3.124   0.246 -0.3722  0.0548 -0.2285
 2027SOL    HW1 6080   1.272   3.172   0.298  0.3708 -1.7875  0.6643
 2027SOL    HW2 6081   1.187   3.047   0.300 -2.1486 -0.2028 -1.2053
 2028SOL     OW 6082   1.872   2.327   2.914  0.4290 -0.0854  0.0121
 2028SOL    HW1 6083   1.953   2.348   2.867  0.0092  1.5593 -0.0386
 2028SOL    HW2 6084   1.901   2.281   2.992  1.2202 -1.8532 -1.2415
 2029SOL     OW 6085   2.901   3.413   0.578  0.0203  0.3766 -0.1450
 2029SOL    HW1 6086   2.842   3.387   0.649 -1.2562  0.3905 -1.1583
 2029SOL    HW2 6087   2.969   3.345   0.577 -0.6547 -0.3222  0.2887
 2030SOL     OW 6088   0.278   2.947   3.509 -0.0653  0.7448 -0.1329
 2030SOL    HW1 6089   0.189   2.980   3.506 -0.2310  0.4562  0.9821
 2030SOL    HW2 6090   0.274   2.861   3.467 -0.7414 -0.1068  1.5606
 2031SOL     OW 6091   1.501   0.769   3.205 -0.1121  0.2011  0.0250
 2031SOL    HW1 6092   1.447   0.734   3.134 -1.6198 -0.1472  1.2904
 2031SOL    HW2 6093   1.517   0.693   3.261 -0.3318  0.7927  0.8985
 2032SOL     OW 6094   0.776   0.541   0.835  0.3996  0.6586  0.1654
 2032SOL    HW1 6095   0.692   0.579   0.860 -0.0249  0.8175 -1.3657
 2032SOL    HW2 6096   0.837   0.615   0.834  0.2630  0.7696  0.0641
 2033SOL     OW 6097   1.506   1.740   1.067 -0.2055 -0.0947  0.1292
 2033SOL    HW1 6098   1.467   1.716   0.983  0.5414  1.5728 -0.7434
 2033SOL    HW2 6099   1.598   1.759   1.047  0.1551 -0.3264  1.4571
 2034SOL     OW 6100   3.174   2.609   2.627 -0.0559  0.0994 -0.3081
 2034SOL    HW1 6101   3.268   2.625   2.626  0.0291 -0.1905 -2.7710
 2034SOL    HW2 6102   3.159   2.545   2.557 -1.7749 -1.9908  1.8115
 2035SOL     OW 6103   0.089   1.045   3.489 -0.4454  0.4725 -0.5143
 2035SOL    HW1 6104   0.154   1.108   3.461  0.1637  0.7328  1.3617
 2035SOL    HW2 6105   0.011   1.065   3.436 -0.5792  3.4077  0.6487
 2036SOL     OW 6106   0.534   1.109   2.475 -0.1390  0.6718  0.3101
 2036SOL    HW1 6107   0.587   1.031   2.489  0.1672  1.0982  1.6672
 2036SOL    HW2 6108   0.477   1.114   2.552 -4.0880 -1.1790 -2.1594
 2037SOL     OW 6109   2.550   1.106   2.110  0.9100  0.4989 -0.4220
 2037SOL    HW1 6110   2.480   1.091   2.173 -1.1089  2.3453 -2.0639
 2037SOL    HW2 6111   2.580   1.195   2.129  3.3986 -0.4951  0.7018
 2038SOL     OW 6112   1.778   1.324   2.589 -0.6770  0.1446  0.2042
 2038SOL    HW1 6113   1.840   1.251   2.587  0.3387  0.9599  0.6984
 2038SOL    HW2 6114   1.735   1.322   2.504  0.5874  0.0198 -0.4583
 2039SOL     OW 6115   1.780   2.455   1.594 -0.0806 -0.2247 -0.5976
 2039SOL    HW1 6116   1.737   2.370   1.587 -1.2782  0.3206 -0.2363
 2039SOL    HW2 6117   1.871   2.438   1.571 -0.4890 -1.4240 -1.4440
 2040SOL     OW 6118   3.586   1.529   3.502 -0.5879 -0.0998 -0.2359
 2040SOL    HW1 6119   3.682   1.526   3.506 -0.5647 -0.3996 -1.0184
 2040SOL    HW2 6120   3.563   1.470   3.431 -1.3356  0.3198 -0.3491
 2041SOL     OW 6121   2.609   3.930   0.987  0.1865 -0.3468 -0.2718
 2041SOL    HW1 6122   2.672   3.918   0.916  2.4313 -0.7729  1.6912
 2041SOL    HW2 6123   2.601   4.025   0.996  1.0329 -0.2855 -0.1239
 2042SOL     OW 6124   3.095   1.557   1.308 -0.3417  0.2971 -0.5582
 2042SOL    HW1 6125   3.000   1.563   1.321 -0.4690 -0.2245 -1.1365
 2042SOL    HW2 6126   3.131   1.636   1.347 -1.1383  1.0891 -1.3792
 2043SOL     OW 6127   0.195   2.081   0.545 -0.3748  0.7542  0.1722
 2043SOL    HW1 6128   0.287   2.083   0.571 -0.4113 -1.5060  0.7338
 2043SOL    HW2 6129   0.150   2.134   0.612  0.3437  0.6008  0.7901
 2044SOL     OW 6130   3.671   1.768   0.859  0.5879 -0.1490 -0.1728
 2044SOL    HW1 6131   3.648   1.824   0.933  1.1522 -0.1376  0.0000
 2044SOL    HW2 6132   3.716   1.825   0.798 -2.7803  0.6797 -2.1441
 2045SOL     OW 6133   0.142   0.649   0.187  0.4911  0.5377  0.1503
 2045SOL    HW1 6134   0.100   0.571   0.152  0.0782  0.8367 -0.0387
 2045SOL    HW2 6135   0.072   0.714   0.191  1.3544  1.7563 -2.3486
 2046SOL     OW 6136   1.957   1.973   1.087  0.0930 -0.3574 -0.0174
 2046SOL    HW1 6137   1.973   2.013   1.172  0.6525  2.5458 -1.3576
 2046SOL    HW2 6138   2.028   2.004   1.032 -0.7235 -1.4500 -1.7939
 2047SOL     OW 6139   3.311   0.881   0.605  0.9980  0.0291  0.5170
 2047SOL    HW1 6140   3.369   0.817   0.563  1.1499  0.3774  0.1995
 2047SOL    HW2 6141   3.284   0.838   0.686 -0.5217 -1.3134 -0.6175
 2048SOL     OW 6142   3.763   2.775   2.053  0.2498 -0.2373  0.2527
 2048SOL    HW1 6143   3.757   2.773   2.148  1.8090 -1.1674  0.3599
 2048SOL    HW2 6144   3.701   2.708   2.023  0.0611 -0.2264  0.6166
 2049SOL     OW 6145   1.464   0.954   3.424 -0.0686  0.3231 -0.3952
 2049SOL    HW1 6146   1.474   0.887   3.357  0.5317  1.1346 -1.1382
 2049SOL    HW2 6147   1.516   1.028   3.393  1.5967  0.1602  1.7346
 2050SOL     OW 6148   3.933   1.743   2.389 -0.3761 -0.4814 -0.1183
 2050SOL    HW1 6149   3.965   1.658   2.419  1.9184  0.1616 -0.5522
 2050SOL    HW2 6150   3.882   1.724   2.311  0.0089 -1.4708 -0.1429
 2051SOL     OW 6151   3.107   2.456   2.391  0.2544 -0.0058  0.4818
 2051SOL    HW1 6152   3.050   2.378   2.393  0.2323 -0.0395 -0.5028
 2051SOL    HW2 6153   3.072   2.508   2.318  0.1730  1.0101  1.2310
 2052SOL     OW 6154   1.733   3.295   3.458 -0.3667 -0.1400  0.5959
 2052SOL    HW1 6155   1.780   3.279   3.539  0.3919 -0.9308  0.0178
 2052SOL    HW2 6156   1.770   3.232   3.396 -0.5896  0.7745 -0.4973
 2053SOL     OW 6157   1.292   2.137   1.062 -0.5359  0.3725  0.8458
 2053SOL    HW1 6158   1.323   2.228   1.060  0.5456  0.0091  0.0458
 2053SOL    HW2 6159   1.363   2.089   1.105 -1.1371 -0.0905  1.3359
 2054SOL     OW 6160   3.922   3.978   3.697  0.0819 -0.8149  0.3720
 2054SOL    HW1 6161   3.861   3.991   3.624  2.9163 -3.0288 -2.6738
 2054SOL    HW2 6162   3.871   3.928   3.761 -2.1310 -0.0341 -0.6559
 2055SOL     OW 6163   3.503   3.184   3.753  0.2261  0.1913 -0.2874
 2055SOL    HW1 6164   3.438   3.164   3.821 -0.0172 -0.3489 -0.6776
 2055SOL    HW2 6165   3.561   3.109   3.752  1.0580  0.8091  0.2758
 2056SOL     OW 6166   3.757   1.596   0.337  0.4574  0.1157 -0.1213
 2056SOL    HW1 6167   3.763   1.676   0.391  2.3240 -0.0496  0.0045
 2056SOL    HW2 6168   3.821   1.610   0.267  0.6536 -1.1807 -0.2192
 2057SOL     OW 6169   0.485   2.292   2.974 -0.1415  0.2203 -0.0724
 2057SOL    HW1 6170   0.469   2.386   2.963 -1.8514  0.1296  1.2036
 2057SOL    HW2 6171   0.438   2.251   2.900 -2.4104  0.2242  1.2733
 2058SOL     OW 6172   3.343   3.218   2.244  0.3061 -0.4294 -0.4654
 2058SOL    HW1 6173   3.379   3.306   2.252  1.1621 -0.6234 -1.8435
 2058SOL    HW2 6174   3.332   3.206   2.150 -0.5223 -1.5217 -0.2437
 2059SOL     OW 6175   0.681   0.329   1.876 -0.2963  0.0539 -0.0746
 2059SOL    HW1 6176   0.705   0.422   1.874  0.0551  0.0196  1.2854
 2059SOL    HW2 6177   0.642   0.312   1.791  0.0706  1.3368 -0.5182
 2060SOL     OW 6178   1.291   2.722   1.198 -0.3655 -0.2302  0.2531
 2060SOL    HW1 6179   1.307   2.798   1.254  0.3763  0.3780 -0.7531
 2060SOL    HW2 6180   1.289   2.758   1.109 -0.5390 -1.3165 -0.1934
 2061SOL     OW 6181   1.427   0.901   2.385 -0.4954 -0.1917  0.4088
 2061SOL    HW1 6182   1.492   0.908   2.455  0.6933 -0.0816 -0.6705
 2061SOL    HW2 6183   1.421   0.808   2.367 -0.0710 -0.1477  0.0130
 2062SOL     OW 6184   0.726   2.635   3.880  0.0196  0.4057  0.5325
 2062SOL    HW1 6185   0.755   2.544   3.891 -0.8504  0.2126  1.3971
 2062SOL    HW2 6186   0.695   2.661   3.967 -0.2606  1.3497  0.1673
 2063SOL     OW 6187   1.990   1.124   1.438  0.2763  0.0814 -0.3808
 2063SOL    HW1 6188   1.928   1.131   1.366 -0.6603 -0.3923  0.3581
 2063SOL    HW2 6189   2.044   1.048   1.416  0.8949  0.7500 -1.2369
 2064SOL     OW 6190   1.689   2.371   3.394 -0.3536 -0.1241 -0.0901
 2064SOL    HW1 6191   1.713   2.374   3.487 -0.2985 -0.4185 -0.0944
 2064SOL    HW2 6192   1.700   2.279   3.369 -0.7768 -0.1263 -0.2795
 2065SOL     OW 6193   3.713   2.680   0.857 -0.2015 -0.2805  0.3731
 2065SOL    HW1 6194   3.645   2.648   0.916 -1.4547 -1.2944 -1.5134
 2065SOL    HW2 6195   3.765   2.603   0.835 -0.1107 -0.0424 -0.2824
 2066SOL     OW 6196   0.289   0.721   1.350 -0.0688  0.3106  0.1743
 2066SOL    HW1 6197   0.209   0.773   1.349 -1.2293 -1.2820  2.1633
 2066SOL    HW2 6198   0.259   0.631   1.335  1.5020 -0.2045 -0.1193
 2067SOL     OW 6199   3.308   3.994   3.645  0.3334 -0.0050 -0.8033
 2067SOL    HW1 6200   3.313   3.925   3.578 -0.9028  1.7161 -2.7871
 2067SOL    HW2 6201   3.391   4.041   3.636  1.7754 -1.9276  1.4782
 2068SOL     OW 6202   0.218   1.401   2.480 -0.1800 -0.0576  0.1109
 2068SOL    HW1 6203   0.253   1.459   2.413 -0.0724  0.4297  0.5802
 2068SOL    HW2 6204   0.290   1.341   2.500 -0.4163 -0.5999 -0.6446
 2069SOL     OW 6205   3.735   0.569   3.487 -0.5858  0.4266  0.1125
 2069SOL    HW1 6206   3.753   0.643   3.429  0.0168  1.7948  1.9382
 2069SOL    HW2 6207   3.791   0.498   3.453  0.3568  1.4214 -0.5019
 2070SOL     OW 6208   3.759   1.889   0.451 -0.0124 -0.2757  0.3112
 2070SOL    HW1 6209   3.753   1.911   0.544  0.2284  0.6937  0.1114
 2070SOL    HW2 6210   3.672   1.909   0.416  0.9096  3.1098 -0.4011
 2071SOL     OW 6211   3.519   3.936   3.949 -0.3399 -0.2351 -0.1333
 2071SOL    HW1 6212   3.538   4.013   4.002 -2.1810 -1.1088  1.9270
 2071SOL    HW2 6213   3.514   3.969   3.860 -1.5385  2.1414  0.7357
 2072SOL     OW 6214   2.622   1.729   1.107  0.2105 -0.2544  0.0772
 2072SOL    HW1 6215   2.580   1.749   1.190 -1.7697  0.2333 -0.9713
 2072SOL    HW2 6216   2.605   1.636   1.092  0.9996 -0.4634  0.4303
 2073SOL     OW 6217   0.655   3.017   2.066 -0.2128 -0.3808  0.3198
 2073SOL    HW1 6218   0.568   3.013   2.028 -0.2644 -0.5926  0.4615
 2073SOL    HW2 6219   0.713   3.032   1.991 -0.2392 -1.5279  0.0583
 2074SOL     OW 6220   0.322   2.441   0.814 -0.0418 -0.8640 -0.7403
 2074SOL    HW1 6221   0.328   2.413   0.905 -0.1882  0.9453 -0.1258
 2074SOL    HW2 6222   0.410   2.467   0.790 -0.2645  0.0451 -0.6159
 2075SOL     OW 6223   1.806   3.200   3.218 -0.2577  0.1462 -0.6683
 2075SOL    HW1 6224   1.900   3.186   3.234 -0.4973 -0.4981  0.2855
 2075SOL    HW2 6225   1.799   3.209   3.123  0.4688 -2.4567 -1.0598
 2076SOL     OW 6226   1.402   0.645   2.328  0.1624  0.3297 -0.7178
 2076SOL    HW1 6227   1.452   0.606   2.256 -0.7892 -1.1920 -0.5977
 2076SOL    HW2 6228   1.437   0.602   2.407 -2.9553 -2.7991 -0.8123
 2077SOL     OW 6229   0.300   2.156   2.006  0.0951 -0.0777 -0.6086
 2077SOL    HW1 6230   0.306   2.234   1.952 -0.4830  0.0055 -0.5592
 2077SOL    HW2 6231   0.312   2.187   2.096  1.8582 -0.3203 -0.7205
 2078SOL     OW 6232   3.190   0.329   3.433  0.3962 -0.1943  0.7892
 2078SOL    HW1 6233   3.202   0.241   3.398  0.8240 -0.5886  1.8832
 2078SOL    HW2 6234   3.248   0.333   3.510  0.4369  1.0618  0.7279
 2079SOL     OW 6235   2.106   1.229   2.459  0.1440  0.2255  0.1322
 2079SOL    HW1 6236   2.042   1.190   2.518  1.2169 -2.2691 -0.2650
 2079SOL    HW2 6237   2.058   1.241   2.377 -0.2691 -0.0174  0.3331
 2080SOL     OW 6238   2.586   1.984   0.078 -0.0909  0.2343 -0.3672
 2080SOL    HW1 6239   2.577   2.054   0.142 -1.4938  0.5054 -0.8211
 2080SOL    HW2 6240   2.624   2.026   0.001 -0.3758  0.3835 -0.4297
 2081SOL     OW 6241   1.053   0.467   3.514 -0.2683  0.4104  0.6436
 2081SOL    HW1 6242   1.120   0.484   3.581  1.4932 -2.7914 -0.0719
 2081SOL    HW2 6243   1.092   0.498   3.433  0.3582 -1.2005  0.2717
 2082SOL     OW 6244   3.014   0.820   0.284 -0.6518  0.1034  0.3171
 2082SOL    HW1 6245   2.974   0.746   0.237  0.5252 -0.1835 -0.2813
 2082SOL    HW2 6246   3.015   0.891   0.220  1.5337 -0.4772 -0.3552
 2083SOL     OW 6247   2.838   3.281   2.489  0.0228 -0.2450 -0.9175
 2083SOL    HW1 6248   2.880   3.337   2.555 -1.5268  0.5551 -0.5639
 2083SOL    HW2 6249   2.838   3.194   2.528 -2.2367  0.4716  0.8942
 2084SOL     OW 6250   0.723   2.162   3.520 -0.1170 -0.0484  0.3592
 2084SOL    HW1 6251   0.796   2.223   3.528  0.9017 -1.0917 -0.5345
 2084SOL    HW2 6252   0.686   2.157   3.608  0.5613  0.8935  0.7151
 2085SOL     OW 6253   2.998   3.950   2.592  0.3415  0.0154 -0.2345
 2085SOL    HW1 6254   3.018   4.042   2.574  1.4251 -0.1379  0.0932
 2085SOL    HW2 6255   2.913   3.935   2.551 -1.3200  1.9570  2.2256
 2086SOL     OW 6256   1.285   2.536   2.429 -0.0345  0.0408  0.2254
 2086SOL    HW1 6257   1.325   2.448   2.433 -1.4296 -0.5804  1.9969
 2086SOL    HW2 6258   1.356   2.593   2.399  0.4834 -1.8811 -2.5956
 2087SOL     OW 6259   3.163   1.319   0.001 -0.3631 -0.7160  0.3449
 2087SOL    HW1 6260   3.126   1.367   0.075  0.9596  0.6824  0.1561
 2087SOL    HW2 6261   3.257   1.314   0.021 -0.1273 -1.1145 -0.8117
 2088SOL     OW 6262   1.131   3.048   2.585 -0.1614 -0.6940 -0.2814
 2088SOL    HW1 6263   1.129   2.952   2.584 -0.4385 -0.7089  1.0143
 2088SOL    HW2 6264   1.193   3.071   2.654 -1.7113  0.0415  0.9369
 2089SOL     OW 6265   0.818   3.735   0.238  0.0929  0.0053 -0.0170
 2089SOL    HW1 6266   0.857   3.756   0.153  0.0442  1.1269  0.2164
 2089SOL    HW2 6267   0.886   3.757   0.301 -0.4837  0.8680  0.3242
 2090SOL     OW 6268   1.998   2.690   0.893 -0.5795  0.2281 -0.0648
 2090SOL    HW1 6269   1.919   2.667   0.943  0.3232 -1.5455  0.6373
 2090SOL    HW2 6270   1.987   2.645   0.809 -1.4315  2.0395 -0.9733
 2091SOL     OW 6271   3.603   2.571   1.900 -0.1629 -0.2751 -0.7148
 2091SOL    HW1 6272   3.511   2.597   1.905 -0.1095 -0.2841  0.5329
 2091SOL    HW2 6273   3.626   2.582   1.808 -0.7606  1.9770 -0.6408
 2092SOL     OW 6274   3.181   0.923   3.572  0.2692  0.5110 -0.0455
 2092SOL    HW1 6275   3.167   0.952   3.482 -1.5219 -0.9864 -0.3127
 2092SOL    HW2 6276   3.114   0.856   3.586  1.3604 -0.2389  1.9731
 2093SOL     OW 6277   1.827   0.059   0.273 -0.1820 -0.2011  0.2718
 2093SOL    HW1 6278   1.860   0.095   0.355  0.8347 -0.6873  0.0905
 2093SOL    HW2 6279   1.901   0.011   0.236 -1.3761 -2.2602  0.3847
 2094SOL     OW 6280   0.534   3.746   0.221  0.1241  0.8947  0.1305
 2094SOL    HW1 6281   0.605   3.688   0.194 -0.1472  0.5396  0.1718
 2094SOL    HW2 6282   0.576   3.807   0.283  0.9431  2.2637 -1.6858
 2095SOL     OW 6283   3.437   3.136   0.677  0.4231 -0.7008 -0.5494
 2095SOL    HW1 6284   3.477   3.054   0.647  2.3301 -0.3737  0.9263
 2095SOL    HW2 6285   3.343   3.122   0.665  0.8092 -2.2017 -2.4905
 2096SOL     OW 6286   2.934   3.438   2.692 -0.2440  0.4881 -0.8060
 2096SOL    HW1 6287   2.861   3.500   2.697 -0.1614  0.5940 -0.9001
 2096SOL    HW2 6288   2.944   3.406   2.782 -1.4817 -0.7935 -1.0969
 2097SOL     OW 6289   0.639   0.737   3.211  0.3100 -0.6852 -0.1878
 2097SOL    HW1 6290   0.616   0.687   3.289  0.0422  0.9620  0.8389
 2097SOL    HW2 6291   0.735   0.740   3.211  0.3137  0.8923  1.2065
 2098SOL     OW 6292   2.734   2.975   1.610 -0.2609 -0.4524  0.1482
 2098SOL    HW1 6293   2.735   3.069   1.593 -0.3090 -0.5074 -0.1641
 2098SOL    HW2 6294   2.722   2.968   1.704  1.1791 -0.1260  0.3761
 2099SOL     OW 6295   0.853   2.614   2.828 -0.5582 -0.7941  0.2253
 2099SOL    HW1 6296   0.938   2.656   2.818 -0.8349 -0.1924  0.3976
 2099SOL    HW2 6297   0.831   2.625   2.921 -0.8877 -0.8325  0.1523
 2100SOL     OW 6298   3.617   0.363   1.873 -0.3895  0.0910 -0.1637
 2100SOL    HW1 6299   3.577   0.284   1.836 -0.7852  0.4487 -0.5234
 2100SOL    HW2 6300   3.549   0.430   1.864  0.0735  0.5602 -0.1973
 2101SOL     OW 6301   3.679   0.432   3.063  0.4836 -0.1575  0.3945
 2101SOL    HW1 6302   3.629   0.354   3.039  2.3217 -1.0645 -0.7412
 2101SOL    HW2 6303   3.754   0.431   3.004 -0.1036  3.2565 -0.6320
 2102SOL     OW 6304   0.893   0.699   0.528 -0.4698 -0.3635 -0.2989
 2102SOL    HW1 6305   0.830   0.645   0.482 -1.2735  0.9285 -0.7672
 2102SOL    HW2 6306   0.840   0.763   0.575  0.4663  0.7531 -0.7107
 2103SOL     OW 6307   2.249   2.769   0.707  0.1975 -0.4379  0.2239
 2103SOL    HW1 6308   2.260   2.854   0.749  0.6478  0.0721 -0.8879
 2103SOL    HW2 6309   2.182   2.725   0.760 -1.0956  1.1575  0.0168
 2104SOL     OW 6310   0.919   2.277   3.329  0.6433 -0.3006  0.0601
 2104SOL    HW1 6311   0.934   2.183   3.342 -0.4260 -0.2086  2.5780
 2104SOL    HW2 6312   0.832   2.282   3.290 -0.2137 -0.3605  1.8611
 2105SOL     OW 6313   1.781   2.506   1.134 -0.3292  0.3391  0.2026
 2105SOL    HW1 6314   1.696   2.525   1.173 -0.9309 -1.7580  0.0712
 2105SOL    HW2 6315   1.845   2.532   1.200 -1.1386  0.7791  0.8246
 2106SOL     OW 6316   1.006   2.428   2.213 -0.4131 -0.2526 -0.3217
 2106SOL    HW1 6317   1.097   2.412   2.186  0.2440  0.6919  1.2330
 2106SOL    HW2 6318   0.958   2.432   2.130  0.5193 -3.0890 -1.1211
 2107SOL     OW 6319   3.137   3.095   2.571 -0.1214 -0.0917 -0.1916
 2107SOL    HW1 6320   3.050   3.096   2.612  0.4607 -2.2331  1.2875
 2107SOL    HW2 6321   3.120   3.111   2.479 -1.9653  0.6369  0.2340
 2108SOL     OW 6322   0.240   1.188   2.839 -0.3686  0.3826  0.2914
 2108SOL    HW1 6323   0.188   1.163   2.915  0.0733 -0.7480  0.2328
 2108SOL    HW2 6324   0.319   1.135   2.845  0.7381  1.9782  0.2971
 2109SOL     OW 6325   3.363   1.292   3.365  0.0059  0.1857  0.4452
 2109SOL    HW1 6326   3.347   1.298   3.459  1.9350  3.7787  0.7030
 2109SOL    HW2 6327   3.324   1.371   3.328  2.2918  0.6493 -1.2115
 2110SOL     OW 6328   3.067   0.003   1.978 -0.0118  0.1598  0.4867
 2110SOL    HW1 6329   3.041  -0.033   1.894 -2.3127  0.7502  0.8948
 2110SOL    HW2 6330   3.116   0.082   1.956  1.7231 -1.0596 -0.3012
 2111SOL     OW 6331   2.852   2.843   3.085 -0.0099  0.4496  0.6166
 2111SOL    HW1 6332   2.846   2.833   2.989  0.2847 -0.5423  0.6909
 2111SOL    HW2 6333   2.878   2.934   3.097  3.2060 -0.1863 -0.4129
 2112SOL     OW 6334   1.340   2.821   0.928 -0.6997 -0.0696  0.2063
 2112SOL    HW1 6335   1.369   2.908   0.900 -0.4617 -0.8555 -2.2361
 2112SOL    HW2 6336   1.346   2.767   0.849 -1.5686 -2.1364  1.4639
 2113SOL     OW 6337   2.120   3.241   0.149 -0.1253 -0.3651 -0.4273
 2113SOL    HW1 6338   2.086   3.282   0.228 -1.8974 -0.5384 -1.0689
 2113SOL    HW2 6339   2.117   3.147   0.168 -1.0603 -0.4359 -0.8701
 2114SOL     OW 6340   3.493   0.859   0.983 -0.2645 -0.1111 -0.0551
 2114SOL    HW1 6341   3.437   0.833   0.910  1.9490 -1.6813 -1.3327
 2114SOL    HW2 6342   3.569   0.900   0.942  1.4389 -1.7947  1.2353
 2115SOL     OW 6343   1.095   1.800   3.397  0.1928  0.2877  0.0009
 2115SOL    HW1 6344   1.055   1.739   3.458 -1.5904  0.8440 -0.5468
 2115SOL    HW2 6345   1.080   1.760   3.311  1.0697  0.3884 -0.2053
 2116SOL     OW 6346   3.112   3.110   0.860 -0.2934 -0.7473 -0.3481
 2116SOL    HW1 6347   3.019   3.087   0.855 -0.3050 -0.8146  0.1373
 2116SOL    HW2 6348   3.154   3.030   0.893 -0.2943 -0.1887  1.0637
 2117SOL     OW 6349   0.219   2.550   3.852  0.1823 -0.0547 -0.0497
 2117SOL    HW1 6350   0.275   2.616   3.811 -0.4934  1.0775  0.7784
 2117SOL    HW2 6351   0.175   2.597   3.923  0.5247 -1.6804  1.2995
 2118SOL     OW 6352   3.985   3.282   2.543  0.0654 -0.0407 -0.0557
 2118SOL    HW1 6353   3.980   3.202   2.492  0.3829  0.2622 -0.5705
 2118SOL    HW2 6354   3.947   3.349   2.486  2.0753  0.6590 -0.6503
 2119SOL     OW 6355   1.203   2.462   1.657 -1.1495  0.1629 -0.0517
 2119SOL    HW1 6356   1.169   2.483   1.743  0.2714 -0.8922  0.8085
 2119SOL    HW2 6357   1.290   2.424   1.673 -1.7573 -2.2295 -1.7548
 2120SOL     OW 6358   2.361   2.288   3.016  0.0669  0.2708  0.1502
 2120SOL    HW1 6359   2.411   2.356   2.971  0.7652  0.1692  0.7590
 2120SOL    HW2 6360   2.278   2.332   3.039  0.9066  1.2704  1.4501
 2121SOL     OW 6361   0.180   2.723   2.435  0.3993  0.9841 -0.0245
 2121SOL    HW1 6362   0.146   2.677   2.512  2.4470 -1.6810 -0.5349
 2121SOL    HW2 6363   0.102   2.746   2.385 -0.8688  0.4478  1.5963
 2122SOL     OW 6364   3.826   1.025   0.489 -0.8177  0.6895 -0.2874
 2122SOL    HW1 6365   3.792   1.111   0.464  1.8242  1.2278 -2.5004
 2122SOL    HW2 6366   3.921   1.038   0.497 -0.5067 -1.7031  0.9299
 2123SOL     OW 6367   0.712   3.415   0.915  0.1661  0.7476  0.4921
 2123SOL    HW1 6368   0.803   3.409   0.886  0.4991 -0.2645  1.6969
 2123SOL    HW2 6369   0.715   3.477   0.988 -0.1159  0.7448  0.5045
 2124SOL     OW 6370   3.406   3.806   1.368 -0.4371 -0.3503  0.1148
 2124SOL    HW1 6371   3.335   3.868   1.380 -0.9333 -0.9922  0.5125
 2124SOL    HW2 6372   3.418   3.764   1.453  0.7364  0.0814  0.1878
 2125SOL     OW 6373   1.691   1.692   2.226 -0.3475  0.4420  0.7354
 2125SOL    HW1 6374   1.614   1.637   2.214  1.1176 -1.3787 -1.0984
 2125SOL    HW2 6375   1.707   1.731   2.140  1.7124 -0.6411  0.5528
 2126SOL     OW 6376   2.661   1.034   0.718  0.2368 -0.7537  0.2543
 2126SOL    HW1 6377   2.701   1.095   0.656  0.0902 -0.3441  0.5617
 2126SOL    HW2 6378   2.582   1.002   0.673 -1.3801  1.5781  1.2252
 2127SOL     OW 6379   2.771   1.112   2.298 -0.7430 -0.2221  0.2788
 2127SOL    HW1 6380   2.769   1.028   2.251 -0.8151 -0.5255  0.8229
 2127SOL    HW2 6381   2.804   1.090   2.385 -0.5725  0.3478  0.3563
 2128SOL     OW 6382   0.217   0.012   1.234  0.1962  0.0791 -0.1306
 2128SOL    HW1 6383   0.262   0.087   1.197 -0.4487  0.5513  0.0261
 2128SOL    HW2 6384   0.286  -0.051   1.253  0.7144  0.5393 -0.4827
 2129SOL     OW 6385   3.725   0.461   2.456 -0.4671  0.2327  0.7191
 2129SOL    HW1 6386   3.674   0.476   2.535  0.3942  2.2703  0.9468
 2129SOL    HW2 6387   3.770   0.378   2.472 -1.1940  0.0427  1.8749
 2130SOL     OW 6388   3.449   1.498   2.858 -0.2173  0.2975 -0.0442
 2130SOL    HW1 6389   3.432   1.592   2.862 -1.5557  0.1035 -0.6261
 2130SOL    HW2 6390   3.544   1.491   2.847 -0.2973  1.6503 -2.0750
 2131SOL     OW 6391   2.008   0.856   2.356  0.3884 -0.1806 -0.3094
 2131SOL    HW1 6392   2.100   0.864   2.382  0.6619 -1.6217 -0.7102
 2131SOL    HW2 6393   1.966   0.816   2.432 -0.4588  2.6046  0.8119
 2132SOL     OW 6394   1.518   2.997   2.519  0.9703  0.2605  0.1053
 2132SOL    HW1 6395   1.472   3.076   2.492 -1.3136 -0.6330  1.1433
 2132SOL    HW2 6396   1.606   3.006   2.482  0.4657  2.7957 -0.6127
 2133SOL     OW 6397   3.190   3.434   0.383 -0.0263  0.8248 -0.0912
 2133SOL    HW1 6398   3.285   3.433   0.392  0.1676 -0.4734 -1.7090
 2133SOL    HW2 6399   3.163   3.346   0.410 -0.5616  0.6267 -1.2221
 2134SOL     OW 6400   1.468   2.440   2.663 -0.2844 -0.3871 -0.1644
 2134SOL    HW1 6401   1.432   2.353   2.646 -1.0646 -0.4238  1.4848
 2134SOL    HW2 6402   1.393   2.499   2.658  0.0689  0.0575 -0.3058
 2135SOL     OW 6403   1.995   3.864   0.162 -0.1915  0.6397  0.4518
 2135SOL    HW1 6404   2.089   3.872   0.177 -0.0358  0.0677 -0.1946
 2135SOL    HW2 6405   1.975   3.772   0.180 -0.6837  0.8124  0.8399
 2136SOL     OW 6406   3.302   2.311   3.209  0.3841 -0.1746 -0.2789
 2136SOL    HW1 6407   3.369   2.298   3.275  1.1372 -0.4368 -1.0888
 2136SOL    HW2 6408   3.291   2.406   3.205  0.7127 -0.1313 -0.1576
 2137SOL     OW 6409   1.928   3.011   2.730 -0.2052  0.1681 -0.0392
 2137SOL    HW1 6410   1.991   2.963   2.677 -2.2827  0.1689 -2.7972
 2137SOL    HW2 6411   1.898   2.948   2.796  1.0027 -0.5402 -0.1487
 2138SOL     OW 6412   2.788   2.362   2.943 -0.0357  0.3384  0.4086
 2138SOL    HW1 6413   2.749   2.362   2.855  0.2876  1.1213  0.2531
 2138SOL    HW2 6414   2.883   2.365   2.926  0.1467 -1.6978  0.7759
 2139SOL     OW 6415   0.034   3.589   0.447 -0.3549  0.4400  0.7378
 2139SOL    HW1 6416   0.100   3.651   0.476 -1.0431  1.1552  0.8121
 2139SOL    HW2 6417   0.041   3.590   0.351  0.1769  0.0179  0.7678
 2140SOL     OW 6418   3.214   0.826   2.573 -0.1263 -0.4429  0.0752
 2140SOL    HW1 6419   3.172   0.740   2.563 -1.7058  0.3227 -0.1011
 2140SOL    HW2 6420   3.172   0.881   2.507  1.3676  0.3066 -0.2782
 2141SOL     OW 6421   2.526   0.531   0.048 -0.3094 -0.0859 -0.1972
 2141SOL    HW1 6422   2.538   0.563   0.138 -0.0172  0.2424 -0.3490
 2141SOL    HW2 6423   2.507   0.438   0.058  2.1360 -0.6443  0.1082
 2142SOL     OW 6424   0.524   1.725   2.278 -0.3493  0.5461  0.3865
 2142SOL    HW1 6425   0.550   1.722   2.186 -1.9231 -1.0305 -0.0670
 2142SOL    HW2 6426   0.454   1.790   2.282 -0.3364  0.5561  0.4607
 2143SOL     OW 6427   2.287   3.609   1.738  0.1562 -0.1675 -0.4319
 2143SOL    HW1 6428   2.258   3.559   1.815 -0.4809 -1.3550 -1.4074
 2143SOL    HW2 6429   2.343   3.678   1.774  0.7834 -1.3656  1.0069
 2144SOL     OW 6430   3.854   1.747   3.577  0.4584 -0.9064 -0.2972
 2144SOL    HW1 6431   3.772   1.796   3.586  0.3775 -1.3501  2.4910
 2144SOL    HW2 6432   3.922   1.815   3.578  0.2163 -0.6561  0.3918
 2145SOL     OW 6433   1.727   1.764   1.895 -0.2351 -0.1355 -0.2989
 2145SOL    HW1 6434   1.807   1.711   1.902 -0.2667 -0.1395  0.0147
 2145SOL    HW2 6435   1.701   1.754   1.803 -0.1099 -0.4746 -0.3006
 2146SOL     OW 6436   1.373   1.909   3.413  0.2972  0.2545  0.4835
 2146SOL    HW1 6437   1.398   1.918   3.321 -1.4682 -0.4918 -0.1135
 2146SOL    HW2 6438   1.331   1.823   3.419  0.5004  0.2203  2.0268
 2147SOL     OW 6439   0.655   1.325   3.379 -0.3583  0.3132  0.1433
 2147SOL    HW1 6440   0.649   1.229   3.371  0.3772  0.4394 -2.6486
 2147SOL    HW2 6441   0.697   1.338   3.464  1.6217 -1.9606 -0.3586
 2148SOL     OW 6442   2.680   0.575   1.106  0.3747  0.1339  0.0170
 2148SOL    HW1 6443   2.695   0.634   1.179  0.4017 -0.9372  0.9020
 2148SOL    HW2 6444   2.741   0.604   1.038 -1.0844  2.4676 -0.4149
 2149SOL     OW 6445   3.334   0.355   1.603 -0.2052  0.2428 -0.1811
 2149SOL    HW1 6446   3.353   0.275   1.554  0.6771 -0.1479  0.7709
 2149SOL    HW2 6447   3.345   0.425   1.539 -1.1109 -0.3843 -1.0641
 2150SOL     OW 6448   0.414   2.894   1.782 -0.3795  0.2225 -0.2353
 2150SOL    HW1 6449   0.505   2.865   1.790 -0.1251  1.0158 -0.1011
 2150SOL    HW2 6450   0.364   2.815   1.761  0.4640 -0.0846 -1.1596
 2151SOL     OW 6451   2.477   3.251   1.045 -0.3317 -0.5903 -0.4749
 2151SOL    HW1 6452   2.390   3.277   1.074  0.2999 -0.8194  1.7669
 2151SOL    HW2 6453   2.537   3.311   1.089  0.7533 -1.5159 -0.6305
 2152SOL     OW 6454   3.024   0.894   3.851  0.2670 -0.0953 -0.1039
 2152SOL    HW1 6455   3.095   0.958   3.862 -0.2579  0.4654  0.0646
 2152SOL    HW2 6456   2.989   0.882   3.940  0.4877 -0.7687 -0.1029
 2153SOL     OW 6457   2.806   1.395   0.200  0.7293 -0.0801 -0.4326
 2153SOL    HW1 6458   2.899   1.409   0.215  0.3281  2.1837  0.2840
 2153SOL    HW2 6459   2.797   1.388   0.105  1.4287  1.6475 -0.6581
 2154SOL     OW 6460   1.581   3.791   2.099  0.2792  0.6278 -0.4722
 2154SOL    HW1 6461   1.604   3.720   2.039 -1.4102  2.9994 -4.2623
 2154SOL    HW2 6462   1.486   3.783   2.110  0.2194  1.7012 -0.1243
 2155SOL     OW 6463   2.135   1.823   1.920  0.0480  0.1025  0.0380
 2155SOL    HW1 6464   2.094   1.743   1.887  2.0158 -1.1623  0.4775
 2155SOL    HW2 6465   2.105   1.831   2.010 -2.6379  1.6741 -0.8977
 2156SOL     OW 6466   3.889   0.529   0.139 -0.3264 -0.2475 -0.1709
 2156SOL    HW1 6467   3.857   0.583   0.211  0.6021 -0.5470  0.4858
 2156SOL    HW2 6468   3.922   0.450   0.181  0.6132 -0.2499 -0.8710
 2157SOL     OW 6469   3.764   1.947   3.207  0.0430  0.4880 -0.0808
 2157SOL    HW1 6470   3.735   1.963   3.117 -2.1121 -0.7762  0.3259
 2157SOL    HW2 6471   3.689   1.969   3.261  0.5358 -0.8664  1.2339
 2158SOL     OW 6472   1.381   3.809   2.952 -0.6707  0.5603  0.2183
 2158SOL    HW1 6473   1.439   3.824   2.877  1.6044  1.1914  1.9605
 2158SOL    HW2 6474   1.303   3.770   2.915  0.6396  0.1885 -2.3916
 2159SOL     OW 6475   3.911   1.645   0.921  0.2497  0.0584 -0.2004
 2159SOL    HW1 6476   3.848   1.710   0.949  1.8900  0.8225  1.9967
 2159SOL    HW2 6477   3.866   1.561   0.929 -0.8861  0.6740 -0.0240
 2160SOL     OW 6478   0.319   2.417   0.533 -0.4135  0.0572  0.1669
 2160SOL    HW1 6479   0.311   2.436   0.626  1.6863 -0.1975  0.4564
 2160SOL    HW2 6480   0.368   2.334   0.530 -2.4454 -1.1738 -1.1553
 2161SOL     OW 6481   0.070   3.161   3.020  0.3347  0.1124 -0.1412
 2161SOL    HW1 6482   0.024   3.177   3.102 -1.1222  1.6898 -1.1906
 2161SOL    HW2 6483   0.001   3.156   2.954  1.5193 -0.0519 -1.4093
 2162SOL     OW 6484   1.267   2.057   1.620 -0.1004 -0.1583 -0.4579
 2162SOL    HW1 6485   1.244   2.084   1.531  1.3448  1.2709 -0.4391
 2162SOL    HW2 6486   1.350   2.012   1.611 -0.8325 -1.6790 -0.0220
 2163SOL     OW 6487   0.392   2.049   2.478  0.6554 -0.1907 -0.1531
 2163SOL    HW1 6488   0.406   2.108   2.405 -3.2472 -0.5066 -1.3973
 2163SOL    HW2 6489   0.322   1.991   2.449 -1.6402  0.1018  4.0064
 2164SOL     OW 6490   3.457   1.237   1.806  0.3168  0.2175 -0.2343
 2164SOL    HW1 6491   3.403   1.261   1.882  1.3053  0.9432  0.2695
 2164SOL    HW2 6492   3.468   1.319   1.758  1.2276  0.1577 -0.1480
 2165SOL     OW 6493   2.658   3.790   1.340 -0.2298  0.0426 -0.5991
 2165SOL    HW1 6494   2.738   3.815   1.294  0.2446  0.3267  0.3469
 2165SOL    HW2 6495   2.595   3.771   1.271  0.7575 -0.5182 -1.3677
   4.00000   4.00000   4.00000
